VARIABLES = "x" "y"
ZONE T="fluid" SOLUTIONTIME=0 DATAPACKING=POINT N=16411 E=32250 ZONETYPE=FETRIANGLE
 0.3 0.00285660083795
 0.3 0.00230493994976
 0.3 0.00185825097146
 0.3 0.00149655949106
 0.3 0.0012036918956
 0.3 0.000966552142184
 0.3 0.000774536147517
 0.3 0.000619057609326
 0.3 0.000493164056134
 0.3 0.000391225956384
 0.3 0.000308684984926
 0.3 0.000241850190224
 0.3 0.00018773294755
 0.3 0.000143913317854
 0.3 0.000108431836319
 0.3 7.97018917563e-05
 0.3 5.643877875e-05
 0.3 3.760225e-05
 0.3 2.235e-05
 0.3 1e-05
 0.3 0
 0.3 0.00341171169992
 0.298839151375 0.00341116552645
 0.298839151375 0.00285660083795
 0.298839151375 0.00230493994976
 0.298839151375 0.00185825097146
 0.298839151375 0.00149655949106
 0.298839151375 0.0012036918956
 0.298839151375 0.000966552142184
 0.298839151375 0.000774536147517
 0.298839151375 0.000619057609326
 0.298839151375 0.000493164056134
 0.298839151375 0.000391225956384
 0.298839151375 0.000308684984926
 0.298839151375 0.000241850190224
 0.298839151375 0.00018773294755
 0.298839151375 0.000143913317854
 0.298839151375 0.000108431836319
 0.298839151375 7.97018917563e-05
 0.298839151375 5.643877875e-05
 0.298839151375 3.760225e-05
 0.298839151375 2.235e-05
 0.298839151375 1e-05
 0.298839151375 0
 0.3 0.00396682256188
 0.298839151375 0.00396594660636
 0.297562217887 0.00341056496235
 0.297562217887 0.00285660083795
 0.297562217887 0.00230493994976
 0.297562217887 0.00185825097146
 0.297562217887 0.00149655949106
 0.297562217887 0.0012036918956
 0.297562217887 0.000966552142184
 0.297562217887 0.000774536147517
 0.297562217887 0.000619057609326
 0.297562217887 0.000493164056134
 0.297562217887 0.000391225956384
 0.297562217887 0.000308684984926
 0.297562217887 0.000241850190224
 0.297562217887 0.00018773294755
 0.297562217887 0.000143913317854
 0.297562217887 0.000108431836319
 0.297562217887 7.97018917563e-05
 0.297562217887 5.643877875e-05
 0.297562217887 3.760225e-05
 0.297562217887 2.235e-05
 0.297562217887 1e-05
 0.297562217887 0
 0.3 0.00452193342385
 0.298839151375 0.00452096572017
 0.297562217887 0.00396498341889
 0.296157591051 0.00340990461617
 0.296157591051 0.00285660083795
 0.296157591051 0.00230493994976
 0.296157591051 0.00185825097146
 0.296157591051 0.00149655949106
 0.296157591051 0.0012036918956
 0.296157591051 0.000966552142184
 0.296157591051 0.000774536147517
 0.296157591051 0.000619057609326
 0.296157591051 0.000493164056134
 0.296157591051 0.000391225956384
 0.296157591051 0.000308684984926
 0.296157591051 0.000241850190224
 0.296157591051 0.00018773294755
 0.296157591051 0.000143913317854
 0.296157591051 0.000108431836319
 0.296157591051 7.97018917563e-05
 0.296157591051 5.643877875e-05
 0.296157591051 3.760225e-05
 0.296157591051 2.235e-05
 0.296157591051 1e-05
 0.296157591051 0
 0.3 0.00507704428582
 0.298839151375 0.00507624667475
 0.297562217887 0.00451990164783
 0.296157591051 0.00396392435267
 0.294612501531 0.00340917856732
 0.294612501531 0.00285660083795
 0.294612501531 0.00230493994976
 0.294612501531 0.00185825097146
 0.294612501531 0.00149655949106
 0.294612501531 0.0012036918956
 0.294612501531 0.000966552142184
 0.294612501531 0.000774536147517
 0.294612501531 0.000619057609326
 0.294612501531 0.000493164056134
 0.294612501531 0.000391225956384
 0.294612501531 0.000308684984926
 0.294612501531 0.000241850190224
 0.294612501531 0.00018773294755
 0.294612501531 0.000143913317854
 0.294612501531 0.000108431836319
 0.294612501531 7.97018917563e-05
 0.294612501531 5.643877875e-05
 0.294612501531 3.760225e-05
 0.294612501531 2.235e-05
 0.294612501531 1e-05
 0.294612501531 0
 0.3 0.00563215514779
 0.298839151375 0.00563181565773
 0.297562217887 0.00507536963367
 0.296157591051 0.00451873165433
 0.294612501531 0.0039627599122
 0.292912903059 0.00340838031523
 0.292912903059 0.00285660083795
 0.292912903059 0.00230493994976
 0.292912903059 0.00185825097146
 0.292912903059 0.00149655949106
 0.292912903059 0.0012036918956
 0.292912903059 0.000966552142184
 0.292912903059 0.000774536147517
 0.292912903059 0.000619057609326
 0.292912903059 0.000493164056134
 0.292912903059 0.000391225956384
 0.292912903059 0.000308684984926
 0.292912903059 0.000241850190224
 0.292912903059 0.00018773294755
 0.292912903059 0.000143913317854
 0.292912903059 0.000108431836319
 0.292912903059 7.97018917563e-05
 0.292912903059 5.643877875e-05
 0.292912903059 3.760225e-05
 0.292912903059 2.235e-05
 0.292912903059 1e-05
 0.292912903059 0
 0.3 0.00618726600976
 0.298839151375 0.00618770147567
 0.297562217887 0.00563144235959
 0.296157591051 0.00507440528911
 0.294612501531 0.00451744524962
 0.292912903059 0.00396147967186
 0.29104334474 0.00340750272393
 0.29104334474 0.00285660083795
 0.29104334474 0.00230493994976
 0.29104334474 0.00185825097146
 0.29104334474 0.00149655949106
 0.29104334474 0.0012036918956
 0.29104334474 0.000966552142184
 0.29104334474 0.000774536147517
 0.29104334474 0.000619057609326
 0.29104334474 0.000493164056134
 0.29104334474 0.000391225956384
 0.29104334474 0.000308684984926
 0.29104334474 0.000241850190224
 0.29104334474 0.00018773294755
 0.29104334474 0.000143913317854
 0.29104334474 0.000108431836319
 0.29104334474 7.97018917563e-05
 0.29104334474 5.643877875e-05
 0.29104334474 3.760225e-05
 0.29104334474 2.235e-05
 0.29104334474 1e-05
 0.29104334474 0
 0.3 0.00674237687172
 0.298839151375 0.0067439358159
 0.297562217887 0.00618818030741
 0.296157591051 0.00563103190216
 0.294612501531 0.00507334499486
 0.292912903059 0.0045160309161
 0.29104334474 0.00396007218694
 0.288986830589 0.00340653796155
 0.288986830589 0.00285660083795
 0.288986830589 0.00230493994976
 0.288986830589 0.00185825097146
 0.288986830589 0.00149655949106
 0.288986830589 0.0012036918956
 0.288986830589 0.000966552142184
 0.288986830589 0.000774536147517
 0.288986830589 0.000619057609326
 0.288986830589 0.000493164056134
 0.288986830589 0.000391225956384
 0.288986830589 0.000308684984926
 0.288986830589 0.000241850190224
 0.288986830589 0.00018773294755
 0.288986830589 0.000143913317854
 0.288986830589 0.000108431836319
 0.288986830589 7.97018917563e-05
 0.288986830589 5.643877875e-05
 0.288986830589 3.760225e-05
 0.288986830589 2.235e-05
 0.288986830589 1e-05
 0.288986830589 0
 0.3 0.00729748773369
 0.298839151375 0.00730055353466
 0.297562217887 0.00674565000741
 0.296157591051 0.0061887068036
 0.294612501531 0.00563058060531
 0.292912903059 0.00507217925776
 0.29104334474 0.00451447601032
 0.288986830589 0.00395852489667
 0.286724665023 0.00340547743447
 0.286724665023 0.00285660083795
 0.286724665023 0.00230493994976
 0.286724665023 0.00185825097146
 0.286724665023 0.00149655949106
 0.286724665023 0.0012036918956
 0.286724665023 0.000966552142184
 0.286724665023 0.000774536147517
 0.286724665023 0.000619057609326
 0.286724665023 0.000493164056134
 0.286724665023 0.000391225956384
 0.286724665023 0.000308684984926
 0.286724665023 0.000241850190224
 0.286724665023 0.00018773294755
 0.286724665023 0.000143913317854
 0.286724665023 0.000108431836319
 0.286724665023 7.97018917563e-05
 0.286724665023 5.643877875e-05
 0.286724665023 3.760225e-05
 0.286724665023 2.235e-05
 0.286724665023 1e-05
 0.286724665023 0
 0.3 0.00780213397184
 0.298839151375 0.0078061096095
 0.297562217887 0.00730392464324
 0.296157591051 0.00674753483509
 0.294612501531 0.00618928568477
 0.292912903059 0.00563008442844
 0.29104334474 0.00507089765669
 0.288986830589 0.0045127666559
 0.286724665023 0.00395682401857
 0.284236282901 0.00340431171566
 0.284236282901 0.00285660083795
 0.284236282901 0.00230493994976
 0.284236282901 0.00185825097146
 0.284236282901 0.00149655949106
 0.284236282901 0.0012036918956
 0.284236282901 0.000966552142184
 0.284236282901 0.000774536147517
 0.284236282901 0.000619057609326
 0.284236282901 0.000493164056134
 0.284236282901 0.000391225956384
 0.284236282901 0.000308684984926
 0.284236282901 0.000241850190224
 0.284236282901 0.00018773294755
 0.284236282901 0.000143913317854
 0.284236282901 0.000108431836319
 0.284236282901 7.97018917563e-05
 0.284236282901 5.643877875e-05
 0.284236282901 3.760225e-05
 0.284236282901 2.235e-05
 0.284236282901 1e-05
 0.284236282901 0
 0.3 0.00826090327925
 0.298839151375 0.00826533801052
 0.297562217887 0.00781048116086
 0.296157591051 0.00730763132298
 0.294612501531 0.00674960719813
 0.292912903059 0.00618992213382
 0.29104334474 0.00562953893597
 0.288986830589 0.0050694887543
 0.286724665023 0.00451088762678
 0.284236282901 0.0039549544335
 0.281499062566 0.00340303046673
 0.281499062566 0.00285660083795
 0.281499062566 0.00230493994976
 0.281499062566 0.00185825097146
 0.281499062566 0.00149655949106
 0.281499062566 0.0012036918956
 0.281499062566 0.000966552142184
 0.281499062566 0.000774536147517
 0.281499062566 0.000619057609326
 0.281499062566 0.000493164056134
 0.281499062566 0.000391225956384
 0.281499062566 0.000308684984926
 0.281499062566 0.000241850190224
 0.281499062566 0.00018773294755
 0.281499062566 0.000143913317854
 0.281499062566 0.000108431836319
 0.281499062566 7.97018917563e-05
 0.281499062566 5.643877875e-05
 0.281499062566 3.760225e-05
 0.281499062566 2.235e-05
 0.281499062566 1e-05
 0.281499062566 0
 0.3 0.00867796628599
 0.298839151375 0.0086825239475
 0.297562217887 0.00827021437434
 0.296157591051 0.00781528787078
 0.294612501531 0.00731170680765
 0.292912903059 0.00675188565113
 0.29104334474 0.00619062184029
 0.288986830589 0.00562893925978
 0.286724665023 0.00506794000081
 0.284236282901 0.00450882222023
 0.281499062566 0.00395289956077
 0.278488120197 0.00340162235346
 0.278488120197 0.00285660083795
 0.278488120197 0.00230493994976
 0.278488120197 0.00185825097146
 0.278488120197 0.00149655949106
 0.278488120197 0.0012036918956
 0.278488120197 0.000966552142184
 0.278488120197 0.000774536147517
 0.278488120197 0.000619057609326
 0.278488120197 0.000493164056134
 0.278488120197 0.000391225956384
 0.278488120197 0.000308684984926
 0.278488120197 0.000241850190224
 0.278488120197 0.00018773294755
 0.278488120197 0.000143913317854
 0.278488120197 0.000108431836319
 0.278488120197 7.97018917563e-05
 0.278488120197 5.643877875e-05
 0.278488120197 3.760225e-05
 0.278488120197 2.235e-05
 0.278488120197 1e-05
 0.278488120197 0
 0.3 0.00905711447394
 0.298839151375 0.00906154834587
 0.297562217887 0.00868753548357
 0.296157591051 0.00827557614744
 0.294612501531 0.00782057283585
 0.292912903059 0.00731618758651
 0.29104334474 0.00675439056234
 0.288986830589 0.00619139104857
 0.286724665023 0.00562828005825
 0.284236282901 0.00506623762933
 0.281499062566 0.00450655211888
 0.278488120197 0.00395064122246
 0.275176083592 0.00340007495412
 0.275176083592 0.00285660083795
 0.275176083592 0.00230493994976
 0.275176083592 0.00185825097146
 0.275176083592 0.00149655949106
 0.275176083592 0.0012036918956
 0.275176083592 0.000966552142184
 0.275176083592 0.000774536147517
 0.275176083592 0.000619057609326
 0.275176083592 0.000493164056134
 0.275176083592 0.000391225956384
 0.275176083592 0.000308684984926
 0.275176083592 0.000241850190224
 0.275176083592 0.00018773294755
 0.275176083592 0.000143913317854
 0.275176083592 0.000108431836319
 0.275176083592 7.97018917563e-05
 0.275176083592 5.643877875e-05
 0.275176083592 3.760225e-05
 0.275176083592 2.235e-05
 0.275176083592 1e-05
 0.275176083592 0
 0.3 0.00971514025466
 0.3 0.00940179464479
 0.298839151375 0.00940592754359
 0.297562217887 0.00906642376477
 0.296157591051 0.00869304588442
 0.294612501531 0.00828147140308
 0.292912903059 0.00782638337424
 0.29104334474 0.00732111371558
 0.288986830589 0.00675714428628
 0.286724665023 0.00619223661037
 0.2842362829 0.00562755547173
 0.281499062566 0.0050643665421
 0.278488120197 0.00450405724087
 0.275176083592 0.00394815949657
 0.271532843326 0.00339837466041
 0.271532843326 0.00285660083795
 0.271532843326 0.00230493994976
 0.271532843326 0.00185825097146
 0.271532843326 0.00149655949106
 0.271532843326 0.0012036918956
 0.271532843326 0.000966552142184
 0.271532843326 0.000774536147517
 0.271532843326 0.000619057609326
 0.271532843326 0.000493164056134
 0.271532843326 0.000391225956384
 0.271532843326 0.000308684984926
 0.271532843326 0.000241850190224
 0.271532843326 0.00018773294755
 0.271532843326 0.000143913317854
 0.271532843326 0.000108431836319
 0.271532843326 7.97018917563e-05
 0.271532843326 5.643877875e-05
 0.271532843326 3.760225e-05
 0.271532843326 2.235e-05
 0.271532843326 1e-05
 0.271532843326 0
 0.3 0.0099999999
 0.298839151375 0.0100032020497
 0.298839151375 0.00971884879053
 0.297562217887 0.00941047201693
 0.296157591051 0.00907178449888
 0.294612501531 0.00869910455587
 0.292912903059 0.00828795292358
 0.29104334474 0.00783277142942
 0.288986830589 0.00732652915707
 0.286724665023 0.00676017135179
 0.2842362829 0.0061931660419
 0.281499062566 0.00562675907411
 0.278488120197 0.00506231018703
 0.275176083592 0.00450131557757
 0.271532843326 0.00394543255808
 0.267525279034 0.00339650657046
 0.267525279034 0.00285660083795
 0.267525279034 0.00230493994976
 0.267525279034 0.00185825097146
 0.267525279034 0.00149655949106
 0.267525279034 0.0012036918956
 0.267525279034 0.000966552142184
 0.267525279034 0.000774536147517
 0.267525279034 0.000619057609326
 0.267525279034 0.000493164056134
 0.267525279034 0.000391225956384
 0.267525279034 0.000308684984926
 0.267525279034 0.000241850190224
 0.267525279034 0.00018773294755
 0.267525279034 0.000143913317854
 0.267525279034 0.000108431836319
 0.267525279034 7.97018917563e-05
 0.267525279034 5.643877875e-05
 0.267525279034 3.760225e-05
 0.267525279034 2.235e-05
 0.267525279034 1e-05
 0.267525279034 0
 0.3 0.0101931977094
 0.298839151375 0.0101955035528
 0.297562217887 0.0100067230852
 0.297562217887 0.00972292664075
 0.296157591051 0.00941546886204
 0.294612501531 0.00907767861212
 0.292912903059 0.00870576574341
 0.29104334474 0.0082950786507
 0.288986830589 0.00783979401028
 0.286724665023 0.00733248214911
 0.2842362829 0.00676349866652
 0.281499062565 0.006194187586
 0.278488120197 0.00562588382026
 0.275176083592 0.00506005042395
 0.271532843326 0.00449830301796
 0.267525279034 0.0039424365073
 0.263116958312 0.0033944543736
 0.263116958312 0.00285660083795
 0.263116958312 0.00230493994976
 0.263116958312 0.00185825097146
 0.263116958312 0.00149655949106
 0.263116958312 0.0012036918956
 0.263116958312 0.000966552142184
 0.263116958312 0.000774536147517
 0.263116958312 0.000619057609326
 0.263116958312 0.000493164056134
 0.263116958312 0.000391225956384
 0.263116958312 0.000308684984926
 0.263116958312 0.000241850190224
 0.263116958312 0.00018773294755
 0.263116958312 0.000143913317854
 0.263116958312 0.000108431836319
 0.263116958312 7.97018917563e-05
 0.263116958312 5.643877875e-05
 0.263116958312 3.760225e-05
 0.263116958312 2.235e-05
 0.263116958312 1e-05
 0.263116958312 0
 0.3 0.0104057152998
 0.298839151375 0.0104070415423
 0.297562217887 0.0101980390234
 0.296157591051 0.0100105946161
 0.296157591051 0.00972741041351
 0.294612501531 0.00942096288023
 0.292912903059 0.00908415887661
 0.29104334474 0.0087130889949
 0.288986830589 0.00830291217655
 0.286724665023 0.00784751367063
 0.2842362829 0.0073390256081
 0.281499062565 0.00676715573938
 0.278488120197 0.00619531027949
 0.275176083592 0.00562492198911
 0.271532843326 0.0050575673798
 0.267525279034 0.00449499315913
 0.263116958312 0.00393914518514
 0.258267805518 0.00339220022658
 0.258267805518 0.00285660083795
 0.258267805518 0.00230493994976
 0.258267805518 0.00185825097146
 0.258267805518 0.00149655949106
 0.258267805518 0.0012036918956
 0.258267805518 0.000966552142184
 0.258267805518 0.000774536147517
 0.258267805518 0.000619057609326
 0.258267805518 0.000493164056134
 0.258267805518 0.000391225956384
 0.258267805518 0.000308684984926
 0.258267805518 0.000241850190224
 0.258267805518 0.00018773294755
 0.258267805518 0.000143913317854
 0.258267805518 0.000108431836319
 0.258267805518 7.97018917563e-05
 0.258267805518 5.643877875e-05
 0.258267805518 3.760225e-05
 0.258267805518 2.235e-05
 0.258267805518 1e-05
 0.258267805518 0
 0.3 0.0106394846493
 0.298839151375 0.0106397411558
 0.297562217887 0.0104084998585
 0.296157591051 0.010200826883
 0.294612501531 0.0100148513542
 0.294612501531 0.00973234030994
 0.292912903059 0.00942700326141
 0.29104334474 0.00909128322285
 0.288986830589 0.00872113966523
 0.286724665023 0.00831152327846
 0.2842362829 0.00785599903091
 0.281499062565 0.00734621756597
 0.278488120197 0.00677117492177
 0.275176083592 0.00619654402626
 0.271532843326 0.00562386512201
 0.267525279034 0.0050548392925
 0.263116958312 0.00449135710206
 0.258267805518 0.00393552997454
 0.252933737445 0.00338972462098
 0.252933737445 0.00285660083795
 0.252933737445 0.00230493994976
 0.252933737445 0.00185825097146
 0.252933737445 0.00149655949106
 0.252933737445 0.0012036918956
 0.252933737445 0.000966552142184
 0.252933737445 0.000774536147517
 0.252933737445 0.000619057609326
 0.252933737445 0.000493164056134
 0.252933737445 0.000391225956384
 0.252933737445 0.000308684984926
 0.252933737445 0.000241850190224
 0.252933737445 0.00018773294755
 0.252933737445 0.000143913317854
 0.252933737445 0.000108431836319
 0.252933737445 7.97018917563e-05
 0.252933737445 5.643877875e-05
 0.252933737445 3.760225e-05
 0.252933737445 2.235e-05
 0.252933737445 1e-05
 0.252933737445 0
 0.3 0.0108966309336
 0.298839151375 0.0108957203947
 0.297562217887 0.0106400232064
 0.296157591051 0.0104101033401
 0.294612501531 0.0102038921272
 0.292912903059 0.0100195314115
 0.292912903059 0.00973776046916
 0.29104334474 0.00943364400373
 0.288986830589 0.00909911523063
 0.286724665023 0.00872998946596
 0.2842362829 0.00832098850098
 0.281499062565 0.00786532534523
 0.278488120197 0.00735412164472
 0.275176083592 0.0067755916691
 0.271532843326 0.00619789967626
 0.267525279033 0.00562270395629
 0.263116958312 0.00505184234258
 0.258267805518 0.00448736323234
 0.252933737445 0.00393155958784
 0.247066262565 0.00338700624173
 0.247066262565 0.00285660083795
 0.247066262565 0.00230493994976
 0.247066262565 0.00185825097146
 0.247066262565 0.00149655949106
 0.247066262565 0.0012036918956
 0.247066262565 0.000966552142184
 0.247066262565 0.000774536147517
 0.247066262565 0.000619057609326
 0.247066262565 0.000493164056134
 0.247066262565 0.000391225956384
 0.247066262565 0.000308684984926
 0.247066262565 0.000241850190224
 0.247066262565 0.00018773294755
 0.247066262565 0.000143913317854
 0.247066262565 0.000108431836319
 0.247066262565 7.97018917563e-05
 0.247066262565 5.643877875e-05
 0.247066262565 3.760225e-05
 0.247066262565 2.235e-05
 0.247066262565 1e-05
 0.247066262565 0
 0.3 0.0111794918465
 0.298839151375 0.0111773094928
 0.297562217887 0.0108947191798
 0.296157591051 0.0106403333333
 0.294612501531 0.010411866364
 0.292912903059 0.0102072622003
 0.29104334474 0.0100246766254
 0.29104334474 0.0097437193448
 0.288986830589 0.00944094437112
 0.286724665023 0.00910772466375
 0.2842362829 0.00873971706344
 0.281499062565 0.00833139178835
 0.278488120197 0.00787557511676
 0.275176083592 0.00736280757071
 0.271532843326 0.00678044482369
 0.267525279033 0.00619938911081
 0.263116958312 0.00562142835357
 0.258267805518 0.00504855047248
 0.252933737445 0.00448297698524
 0.247066262565 0.00392719983987
 0.241732194491 0.00338453933961
 0.241732194492 0.00285660083795
 0.241732194492 0.00230493994976
 0.241732194492 0.00185825097146
 0.241732194492 0.00149655949106
 0.241732194492 0.0012036918956
 0.241732194492 0.000966552142184
 0.241732194492 0.000774536147517
 0.241732194492 0.000619057609326
 0.241732194492 0.000493164056134
 0.241732194492 0.000391225956384
 0.241732194492 0.000308684984926
 0.241732194492 0.000241850190224
 0.241732194492 0.00018773294755
 0.241732194492 0.000143913317854
 0.241732194492 0.000108431836319
 0.241732194492 7.97018917563e-05
 0.241732194492 5.643877875e-05
 0.241732194492 3.760225e-05
 0.241732194492 2.235e-05
 0.241732194492 1e-05
 0.241732194492 0
 0.3 0.0114906388506
 0.298839151375 0.0114870722411
 0.297562217887 0.0111749098098
 0.296157591051 0.0108936183008
 0.294612501531 0.010640674317
 0.292912903059 0.0104138047149
 0.29104334474 0.0102109672291
 0.288986830589 0.0100303329135
 0.288986830589 0.0097502701156
 0.286724665023 0.00944896939178
 0.2842362829 0.00911718805191
 0.281499062565 0.00875040872884
 0.278488120197 0.00834282517098
 0.275176083592 0.00788683876465
 0.271532843326 0.00737235173093
 0.267525279033 0.00678577692009
 0.263116958312 0.00620102533447
 0.258267805518 0.00562002722286
 0.252933737445 0.00504493519287
 0.247066262564 0.00447816059504
 0.241732194491 0.00392324341209
 0.236883041698 0.00338230029779
 0.236883041698 0.00285660083795
 0.236883041698 0.00230493994976
 0.236883041698 0.00185825097146
 0.236883041698 0.00149655949106
 0.236883041698 0.0012036918956
 0.236883041698 0.000966552142184
 0.236883041698 0.000774536147517
 0.236883041698 0.000619057609326
 0.236883041698 0.000493164056134
 0.236883041698 0.000391225956384
 0.236883041698 0.000308684984926
 0.236883041698 0.000241850190224
 0.236883041698 0.00018773294755
 0.236883041698 0.000143913317854
 0.236883041698 0.000108431836319
 0.236883041698 7.97018917563e-05
 0.236883041698 5.643877875e-05
 0.236883041698 3.760225e-05
 0.236883041698 2.235e-05
 0.236883041698 1e-05
 0.236883041698 0
 0.3 0.0118329005551
 0.298839151375 0.0118278294689
 0.297562217887 0.0114831504515
 0.296157591051 0.0111722712548
 0.294612501531 0.0108924078873
 0.292912903059 0.0106410492104
 0.29104334474 0.0104159357208
 0.288986830589 0.0102150402782
 0.286724665023 0.0100365506591
 0.286724665023 0.00975747113269
 0.2842362829 0.00945779040049
 0.281499062565 0.00912758932306
 0.278488120197 0.00876215904366
 0.275176083591 0.00835538950938
 0.271532843326 0.00789921534534
 0.267525279033 0.00738283777353
 0.263116958312 0.00679163451401
 0.258267805518 0.00620282257374
 0.252933737445 0.00561848843815
 0.247066262564 0.00504096537608
 0.241732194491 0.00447378976904
 0.236883041698 0.0039196524277
 0.232474720976 0.00338026777753
 0.232474720976 0.00285660083795
 0.232474720976 0.00230493994976
 0.232474720976 0.00185825097146
 0.232474720976 0.00149655949106
 0.232474720976 0.0012036918956
 0.232474720976 0.000966552142184
 0.232474720976 0.000774536147517
 0.232474720976 0.000619057609326
 0.232474720976 0.000493164056134
 0.232474720976 0.000391225956384
 0.232474720976 0.000308684984926
 0.232474720976 0.000241850190224
 0.232474720976 0.00018773294755
 0.232474720976 0.000143913317854
 0.232474720976 0.000108431836319
 0.232474720976 7.97018917563e-05
 0.232474720976 5.643877875e-05
 0.232474720976 3.760225e-05
 0.232474720976 2.235e-05
 0.232474720976 1e-05
 0.232474720976 0
 0.3 0.01220938843
 0.298839151375 0.0122026849026
 0.297562217887 0.0118222533797
 0.296157591051 0.0114788382748
 0.294612501531 0.0111693701708
 0.292912903059 0.0108910771022
 0.29104334474 0.0106414613649
 0.288986830589 0.0104182783994
 0.286724665023 0.0102195176284
 0.2842362829 0.010043385132
 0.2842362829 0.00976538640621
 0.281499062565 0.00946748562813
 0.278488120197 0.00913902048978
 0.275176083591 0.00877507166424
 0.271532843326 0.00836919529878
 0.267525279033 0.0079128133314
 0.263116958312 0.00739435725469
 0.258267805518 0.00679806853565
 0.252933737445 0.00620479638276
 0.247066262564 0.00561679875044
 0.241732194491 0.00503736280699
 0.236883041697 0.00446982266322
 0.232474720976 0.0039163926635
 0.228467156684 0.00337842248827
 0.228467156684 0.00285660083795
 0.228467156684 0.00230493994976
 0.228467156684 0.00185825097146
 0.228467156684 0.00149655949106
 0.228467156684 0.0012036918956
 0.228467156684 0.000966552142184
 0.228467156684 0.000774536147517
 0.228467156684 0.000619057609326
 0.228467156684 0.000493164056134
 0.228467156684 0.000391225956384
 0.228467156684 0.000308684984926
 0.228467156684 0.000241850190224
 0.228467156684 0.00018773294755
 0.228467156684 0.000143913317854
 0.228467156684 0.000108431836319
 0.228467156684 7.97018917563e-05
 0.228467156684 5.643877875e-05
 0.228467156684 3.760225e-05
 0.228467156684 2.235e-05
 0.228467156684 1e-05
 0.228467156684 0
 0.3 0.0126235250925
 0.298839151375 0.0126150536468
 0.297562217887 0.012195313806
 0.296157591051 0.0118161222294
 0.294612501531 0.0114740970484
 0.292912903059 0.0111661805835
 0.29104334474 0.0108896140487
 0.288986830589 0.0106419144586
 0.286724665023 0.0104208536181
 0.2842362829 0.010224439079
 0.281499062565 0.010050896945
 0.281499062565 0.0097740861343
 0.278488120197 0.00947814084135
 0.275176083591 0.00915158239299
 0.271532843326 0.00878926014875
 0.267525279033 0.00838436353788
 0.263116958311 0.00792775145028
 0.258267805518 0.00740701033345
 0.252933737444 0.00680513466814
 0.247066262564 0.00620696375613
 0.241732194491 0.00561526537567
 0.236883041697 0.00503409299645
 0.232474720976 0.00446622146979
 0.228467156683 0.00391343318122
 0.224823916418 0.0033767469827
 0.224823916418 0.00285660083795
 0.224823916418 0.00230493994976
 0.224823916418 0.00185825097146
 0.224823916418 0.00149655949106
 0.224823916418 0.0012036918956
 0.224823916418 0.000966552142184
 0.224823916418 0.000774536147517
 0.224823916418 0.000619057609326
 0.224823916418 0.000493164056134
 0.224823916418 0.000391225956384
 0.224823916418 0.000308684984926
 0.224823916418 0.000241850190224
 0.224823916418 0.00018773294755
 0.224823916418 0.000143913317854
 0.224823916418 0.000108431836319
 0.224823916418 7.97018917563e-05
 0.224823916418 5.643877875e-05
 0.224823916418 3.760225e-05
 0.224823916418 2.235e-05
 0.224823916418 1e-05
 0.224823916418 0
 0.3 0.0130790754212
 0.298839151375 0.0130686935583
 0.297562217887 0.0126057385744
 0.296157591051 0.0121872089679
 0.294612501531 0.0118093810467
 0.292912903059 0.0114688843226
 0.29104334474 0.0111626739795
 0.288986830589 0.0108880056704
 0.286724665023 0.0106424125276
 0.2842362829 0.0104236842681
 0.281499062565 0.0102298482768
 0.278488120197 0.0100591525497
 0.278488120197 0.00978364727713
 0.275176083591 0.00948985003592
 0.271532843325 0.0091653855065
 0.267525279033 0.00880484884996
 0.263116958311 0.00840102666449
 0.258267805518 0.00794415958543
 0.252933737444 0.00742090651595
 0.247066262564 0.00681289375137
 0.241732194491 0.00620893062596
 0.236883041697 0.00561387363413
 0.232474720976 0.00503112478215
 0.228467156683 0.00446295200999
 0.224823916418 0.00391074599875
 0.221511879813 0.0033752254736
 0.221511879813 0.00285660083795
 0.221511879813 0.00230493994976
 0.221511879813 0.00185825097146
 0.221511879813 0.00149655949106
 0.221511879813 0.0012036918956
 0.221511879813 0.000966552142184
 0.221511879813 0.000774536147517
 0.221511879813 0.000619057609326
 0.221511879813 0.000493164056134
 0.221511879813 0.000391225956384
 0.221511879813 0.000308684984926
 0.221511879813 0.000241850190224
 0.221511879813 0.00018773294755
 0.221511879813 0.000143913317854
 0.221511879813 0.000108431836319
 0.221511879813 7.97018917563e-05
 0.221511879813 5.643877875e-05
 0.221511879813 3.760225e-05
 0.221511879813 2.235e-05
 0.221511879813 1e-05
 0.221511879813 0
 0.3 0.0135801807827
 0.298839151375 0.0135677398136
 0.297562217887 0.0130572778208
 0.296157591051 0.0125954962516
 0.294612501531 0.0121782977214
 0.292912903059 0.011801969476
 0.29104334474 0.0114631534986
 0.288986830589 0.0111588190652
 0.286724665023 0.0108862376406
 0.2842362829 0.0106429599991
 0.281499062565 0.0104267954535
 0.278488120197 0.010235793073
 0.275176083591 0.0100682247734
 0.275176083591 0.00979415417898
 0.271532843325 0.00950271618657
 0.267525279033 0.00918055080552
 0.263116958311 0.00882197387686
 0.258267805517 0.0084193295607
 0.252933737444 0.00796217974137
 0.247066262564 0.00743616544968
 0.241732194491 0.00681993504294
 0.236883041697 0.00621071582201
 0.232474720975 0.00561261026208
 0.228467156683 0.00502842999288
 0.224823916417 0.00445998337082
 0.221511879812 0.00390830579648
 0.218500937444 0.00337384367011
 0.218500937444 0.00285660083795
 0.218500937444 0.00230493994976
 0.218500937444 0.00185825097146
 0.218500937444 0.00149655949106
 0.218500937444 0.0012036918956
 0.218500937444 0.000966552142184
 0.218500937444 0.000774536147517
 0.218500937444 0.000619057609326
 0.218500937444 0.000493164056134
 0.218500937444 0.000391225956384
 0.218500937444 0.000308684984926
 0.218500937444 0.000241850190224
 0.218500937444 0.00018773294755
 0.218500937444 0.000143913317854
 0.218500937444 0.000108431836319
 0.218500937444 7.97018917563e-05
 0.218500937444 5.643877875e-05
 0.218500937444 3.760225e-05
 0.218500937444 2.235e-05
 0.218500937444 1e-05
 0.218500937444 0
 0.3 0.0141313966804
 0.298839151375 0.0141167430008
 0.297562217887 0.0135540599148
 0.296157591051 0.0130447257267
 0.294612501531 0.0125842348471
 0.292912903059 0.0121685002815
 0.29104334474 0.0117938212616
 0.288986830589 0.0114568534329
 0.286724665023 0.011154581503
 0.2842362829 0.0108842942432
 0.281499062565 0.0106435617284
 0.278488120197 0.0104302146966
 0.275176083591 0.0102423259098
 0.271532843325 0.0100781934002
 0.271532843325 0.00980569924114
 0.267525279033 0.00951685205658
 0.263116958311 0.00919721070215
 0.258267805517 0.00884078412766
 0.252933737444 0.0084394306294
 0.247066262564 0.0079819670737
 0.24173219449 0.00745001278303
 0.236883041697 0.00682632595225
 0.232474720975 0.00621233635773
 0.228467156683 0.00561146326892
 0.224823916417 0.00502598314923
 0.221511879812 0.0044572875807
 0.218500937444 0.00390608965464
 0.215763717109 0.00337258863106
 0.215763717109 0.00285660083795
 0.215763717109 0.00230493994976
 0.215763717109 0.00185825097146
 0.215763717109 0.00149655949106
 0.215763717109 0.0012036918956
 0.215763717109 0.000966552142184
 0.215763717109 0.000774536147517
 0.215763717109 0.000619057609326
 0.215763717109 0.000493164056134
 0.215763717109 0.000391225956384
 0.215763717109 0.000308684984926
 0.215763717109 0.000241850190224
 0.215763717109 0.00018773294755
 0.215763717109 0.000143913317854