VARIABLES = "x" "y" "p" "u" "v" "A+" "B+" "C-" "D" "UU"
ZONE T="InnerCells" SOLUTIONTIME=0 DATAPACKING=POINT N=9456 E=18336 ZONETYPE=FETRIANGLE
 0.11 0 0 0 0 0.992094614644 250 250.992094615 249.007905385 0
 0.1099990000005 0 0 0 0 0.992094614644 250 250.992094615 249.007905385 0
 0.11 9.999995000002e-07 0 3.9996e-07 0 0.992094614644 250 250.992094615 249.007905385 0
 0.1099977000012 0 0 0 0 0.992094614644 250 250.992094615 249.007905385 0
 0.1099990068683 1.039269305432e-06 0 4.15665e-07 0 0.992094614644 250 250.992094615 249.007905385 0
 0.11 2.299998850001e-06 0 9.19788e-07 0 0.992094614644 250 250.992094615 249.007905385 0
 0.109996010002 0 0 0 0 0.992094614644 250 250.992094615 249.007905385 0
 0.1099976931126 1.015153513055e-06 0 4.0602e-07 0 0.992094614644 250 250.992094615 249.007905385 0
 0.1099976930891 2.376794338935e-06 0 9.50492e-07 0 0.992094614644 250 250.992094615 249.007905385 0
 0.11 3.989998005001e-06 0 1.59536e-06 0 0.992094614644 250 250.992094615 249.007905385 0
 0.1099938130031 0 0 0 0 0.992094614644 250 250.992094615 249.007905385 0
 0.1099960105384 1.019022885992e-06 0 4.07568e-07 0 0.992094614644 250 250.992094615 249.007905385 0
 0.1099959989733 2.34298929234e-06 0 9.36976e-07 0 0.992094614644 250 250.992094615 249.007905385 0
 0.1099981076704 4.891942276194e-06 0 1.95582e-06 0 0.992094614644 250 250.992094615 249.007905385 0
 0.1099959952888 4.113499984713e-06 0 1.64472e-06 0 0.992094614644 250 250.992094615 249.007905385 0
 0.11 6.186996906502e-06 0 2.47327e-06 0 0.992094614644 250 250.992094615 249.007905385 0
 0.1099909569045 0 0 0 0 0.992094614644 250 250.992094615 249.007905385 0
 0.109993812668 1.017202916282e-06 0 4.0684e-07 0 0.992094614644 250 250.992094615 249.007905385 0
 0.1099938118288 2.342099962623e-06 0 9.36621e-07 0 0.992094614644 250 250.992094615 249.007905385 0
 0.1099970241691 7.330694831168e-06 0 2.93013e-06 0 0.992094614644 250 250.992094615 249.007905385 0
 0.1099937946511 4.063481911763e-06 0 1.62473e-06 0 0.992094614644 250 250.992094615 249.007905385 0
 0.1099937873731 6.368067853228e-06 0 2.54561e-06 0 0.992094614644 250 250.992094615 249.007905385 0
 0.11 9.043095478452e-06 0 3.61397e-06 0 0.992094614644 250 250.992094615 249.007905385 0
 0.1099872439764 0 0 0 0 0.992094614644 250 250.992094615 249.007905385 0
 0.1099909569205 1.017358649601e-06 0 4.06902e-07 0 0.992094614644 250 250.992094615 249.007905385 0
 0.1099909564754 2.340079367663e-06 0 9.35813e-07 0 0.992094614644 250 250.992094615 249.007905385 0
 0.1099972093839 1.084302769115e-05 0 4.33251e-06 0 0.992094614644 250 250.992094615 249.007905385 0
 0.1099944332648 1.028327396402e-05 0 4.10908e-06 0 0.992094614644 250 250.992094615 249.007905385 0
 0.1099909553108 4.063058537558e-06 0 1.62456e-06 0 0.992094614644 250 250.992094615 249.007905385 0
 0.1099909319312 6.301711312321e-06 0 2.5191e-06 0 0.992094614644 250 250.992094615 249.007905385 0
 0.1099909210048 9.298068216556e-06 0 3.71577e-06 0 0.992094614644 250 250.992094615 249.007905385 0
 0.11 1.275602362199e-05 0 5.0959e-06 0 0.992094614644 250 250.992094615 249.007905385 0
 0.1099824171698 0 0 0 0 0.992094614644 250 250.992094615 249.007905385 0
 0.1099872439704 1.017305814369e-06 0 4.06881e-07 0 0.992094614644 250 250.992094615 249.007905385 0
 0.109987243928 2.339859806138e-06 0 9.35725e-07 0 0.992094614644 250 250.992094615 249.007905385 0
 0.1099961039527 1.459692105463e-05 0 5.83025e-06 0 0.992094614644 250 250.992094615 249.007905385 0
 0.1099918939248 1.431424485547e-05 0 5.7175e-06 0 0.992094614644 250 250.992094615 249.007905385 0
 0.1099872431398 4.059321245828e-06 0 1.62307e-06 0 0.992094614644 250 250.992094615 249.007905385 0
 0.1099872411288 6.299224328385e-06 0 2.5181e-06 0 0.992094614644 250 250.992094615 249.007905385 0
 0.1099872099735 9.209611772841e-06 0 3.68045e-06 0 0.992094614644 250 250.992094615 249.007905385 0
 0.1099871948627 1.310596648123e-05 0 5.23552e-06 0 0.992094614644 250 250.992094615 249.007905385 0
 0.11 1.758283020858e-05 0 7.02077e-06 0 0.992094614644 250 250.992094615 249.007905385 0
 0.1099761423212 0 0 0 0 0.992094614644 250 250.992094615 249.007905385 0
 0.10998241717 1.017308239082e-06 0 4.06882e-07 0 0.992094614644 250 250.992094615 249.007905385 0
 0.1099824171639 2.339814043508e-06 0 9.35707e-07 0 0.992094614644 250 250.992094615 249.007905385 0
 0.1099947096771 1.994916788035e-05 0 7.96375e-06 0 0.992094614644 250 250.992094615 249.007905385 0
 0.1099886767375 1.961949483189e-05 0 7.8324e-06 0 0.992094614644 250 250.992094615 249.007905385 0
 0.1099824171227 4.059171439432e-06 0 1.62301e-06 0 0.992094614644 250 250.992094615 249.007905385 0
 0.1099824161117 6.294590716237e-06 0 2.51625e-06 0 0.992094614644 250 250.992094615 249.007905385 0
 0.1099824134767 9.206671393562e-06 0 3.67928e-06 0 0.992094614644 250 250.992094615 249.007905385 0
 0.1099823725855 1.299045953783e-05 0 5.18943e-06 0 0.992094614644 250 250.992094615 249.007905385 0
 0.1099823523909 1.805587937821e-05 0 7.20931e-06 0 0.992094614644 250 250.992094615 249.007905385 0
 0.11 2.385767877116e-05 0 9.5203e-06 0 0.992094614644 250 250.992094615 249.007905385 0
 0.1099679850181 0 0 0 0 0.992094614644 250 250.992094615 249.007905385 0
 0.1099761423212 1.017307680301e-06 0 4.06882e-07 0 0.992094614644 250 250.992094615 249.007905385 0
 0.1099761423206 2.339808094381e-06 0 9.35704e-07 0 0.992094614644 250 250.992094615 249.007905385 0
 0.1099929042702 2.693740040525e-05 0 1.07459e-05 0 0.992094614644 250 250.992094615 249.007905385 0
 0.1099844989075 2.651994195288e-05 0 1.05798e-05 0 0.992094614644 250 250.992094615 249.007905385 0
 0.1099761423071 4.0590618893e-06 0 1.62297e-06 0 0.992094614644 250 250.992094615 249.007905385 0
 0.1099761422275 6.29421290617e-06 0 2.5161e-06 0 0.992094614644 250 250.992094615 249.007905385 0
 0.1099761408362 9.200222662881e-06 0 3.6767e-06 0 0.992094614644 250 250.992094615 249.007905385 0
 0.1099761372363 1.298593326296e-05 0 5.18763e-06 0 0.992094614644 250 250.992094615 249.007905385 0
 0.1099760838048 1.790490792761e-05 0 7.14914e-06 0 0.992094614644 250 250.992094615 249.007905385 0
 0.1099760572255 2.449036369707e-05 0 9.77215e-06 0 0.992094614644 250 250.992094615 249.007905385 0
 0.11 3.201498190251e-05 0 1.2765e-05 0 0.992094614644 250 250.992094615 249.007905385 0
 0.109957380524 0 0 0 0 0.992094614644 250 250.992094615 249.007905385 0
 0.1099679850181 1.017307694385e-06 0 4.06882e-07 0 0.992094614644 250 250.992094615 249.007905385 0
 0.1099679850181 2.339807739807e-06 0 9.35704e-07 0 0.992094614644 250 250.992094615 249.007905385 0
 0.1099905574744 3.602273672438e-05 0 1.43572e-05 0 0.992094614644 250 250.992094615 249.007905385 0
 0.1099790680669 3.549028330097e-05 0 1.41457e-05 0 0.992094614644 250 250.992094615 249.007905385 0
 0.1099679850177 4.05905886561e-06 0 1.62296e-06 0 0.992094614644 250 250.992094615 249.007905385 0
 0.1099679850023 6.29409271284e-06 0 2.51605e-06 0 0.992094614644 250 250.992094615 249.007905385 0
 0.1099679849072 9.199804230724e-06 0 3.67654e-06 0 0.992094614644 250 250.992094615 249.007905385 0
 0.109967983109 1.297766135626e-05 0 5.18433e-06 0 0.992094614644 250 250.992094615 249.007905385 0
 0.1099679784285 1.78991606846e-05 0 7.14685e-06 0 0.992094614644 250 250.992094615 249.007905385 0
 0.1099679088297 2.429392969468e-05 0 9.69396e-06 0 0.992094614644 250 250.992094615 249.007905385 0
 0.1099678740792 3.285507012124e-05 0 1.30988e-05 0 0.992094614644 250 250.992094615 249.007905385 0
 0.11 4.261947597326e-05 0 1.69751e-05 0 0.992094614644 250 250.992094615 249.007905385 0
 0.1099435946817 0 0 0 0 0.992094614644 250 250.992094615 249.007905385 0
 0.109957380524 1.017307692281e-06 0 4.06882e-07 0 0.992094614644 250 250.992094615 249.007905385 0
 0.109957380524 2.339807693273e-06 0 9.35704e-07 0 0.992094614644 250 250.992094615 249.007905385 0
 0.1099875066401 4.783361450435e-05 0 1.90419e-05 0 0.992094614644 250 250.992094615 249.007905385 0
 0.109972008086 4.715163704648e-05 0 1.87717e-05 0 0.992094614644 250 250.992094615 249.007905385 0
 0.1099573805239 4.059057710679e-06 0 1.62296e-06 0 0.992094614644 250 250.992094615 249.007905385 0
 0.109957380523 6.294083817051e-06 0 2.51605e-06 0 0.992094614644 250 250.992094615 249.007905385 0
 0.1099573805006 9.199625737019e-06 0 3.67646e-06 0 0.992094614644 250 250.992094615 249.007905385 0
 0.1099573803668 1.297704425672e-05 0 5.18408e-06 0 0.992094614644 250 250.992094615 249.007905385 0
 0.1099573780001 1.788824331641e-05 0 7.1425e-06 0 0.992094614644 250 250.992094615 249.007905385 0
 0.1099573718512 2.428619199242e-05 0 9.69088e-06 0 0.992094614644 250 250.992094615 249.007905385 0
 0.1099572812752 3.259940785426e-05 0 1.29973e-05 0 0.992094614644 250 250.992094615 249.007905385 0
 0.1099572359781 4.372904777311e-05 0 1.74151e-05 0 0.992094614644 250 250.992094615 249.007905385 0
 0.11 5.640531826524e-05 0 2.24349e-05 0 0.992094614644 250 250.992094615 249.007905385 0
 0.1099256730868 0 0 0 0 0.992094614644 250 250.992094615 249.007905385 0
 0.1099435946817 1.017307692311e-06 0 4.06882e-07 0 0.992094614644 250 250.992094615 249.007905385 0
 0.1099435946817 2.339807692427e-06 0 9.35704e-07 0 0.992094614644 250 250.992094615 249.007905385 0
 0.1099835405473 6.31877279569e-05 0 2.51154e-05 0 0.992094614644 250 250.992094615 249.007905385 0
 0.1099628301833 6.231127631973e-05 0 2.47692e-05 0 0.992094614644 250 250.992094615 249.007905385 0
 0.1099435946817 4.059057696612e-06 0 1.62296e-06 0 0.992094614644 250 250.992094615 249.007905385 0
 0.1099435946817 6.294082757567e-06 0 2.51605e-06 0 0.992094614644 250 250.992094615 249.007905385 0
 0.1099435946807 9.199616992851e-06 0 3.67646e-06 0 0.992094614644 250 250.992094615 249.007905385 0
 0.1099435946526 1.297682316844e-05 0 5.18399e-06 0 0.992094614644 250 250.992094615 249.007905385 0
 0.1099435944826 1.788747335003e-05 0 7.14219e-06 0 0.992094614644 250 250.992094615 249.007905385 0
 0.1099435914115 2.427204910873e-05 0 9.68525e-06 0 0.992094614644 250 250.992094615 249.007905385 0
 0.1099435834219 3.258940857056e-05 0 1.29933e-05 0 0.992094614644 250 250.992094615 249.007905385 0
 0.1099434656336 4.339661401178e-05 0 1.72833e-05 0 0.992094614644 250 250.992094615 249.007905385 0
 0.1099434067394 5.78650792847e-05 0 2.30121e-05 0 0.992094614644 250 250.992094615 249.007905385 0
 0.11 7.432691324481e-05 0 2.95098e-05 0 0.992094614644 250 250.992094615 249.007905385 0
 0.1099023750133 0 0 0 0 0.992094614644 250 250.992094615 249.007905385 0
 0.1099256730868 1.017307692308e-06 0 4.06882e-07 0 0.992094614644 250 250.992094615 249.007905385 0
 0.1099256730868 2.339807692309e-06 0 9.35704e-07 0 0.992094614644 250 250.992094615 249.007905385 0
 0.1099783846039 8.314804962494e-05 0 3.29827e-05 0 0.992094614644 250 250.992094615 249.007905385 0
 0.1099508988824 8.20187487746e-05 0 3.25384e-05 0 0.992094614644 250 250.992094615 249.007905385 0
 0.1099256730868 4.059057692412e-06 0 1.62296e-06 0 0.992094614644 250 250.992094615 249.007905385 0
 0.1099256730868 6.294082696527e-06 0 2.51605e-06 0 0.992094614644 250 250.992094615 249.007905385 0
 0.1099256730866 9.199615257003e-06 0 3.67646e-06 0 0.992094614644 250 250.992094615 249.007905385 0
 0.1099256730851 1.297680962636e-05 0 5.18399e-06 0 0.992094614644 250 250.992094615 249.007905385 0
 0.1099256730473 1.788717695249e-05 0 7.14207e-06 0 0.992094614644 250 250.992094615 249.007905385 0
 0.1099256728207 2.427102048145e-05 0 9.68484e-06 0 0.992094614644 250 250.992094615 249.007905385 0
 0.1099256688096 3.257096767604e-05 0 1.2986e-05 0 0.992094614644 250 250.992094615 249.007905385 0
 0.1099256583628 4.338355869438e-05 0 1.72781e-05 0 0.992094614644 250 250.992094615 249.007905385 0
 0.109925505049 5.743304478419e-05 0 2.28413e-05 0 0.992094614644 250 250.992094615 249.007905385 0
 0.1099254276814 7.624269694125e-05 0 3.02646e-05 0 0.992094614644 250 250.992094615 249.007905385 0
 0.11 9.762498671826e-05 0 3.86688e-05 0 0.992094614644 250 250.992094615 249.007905385 0
 0.1098720875178 0 0 0 0 0.992094614644 250 250.992094615 249.007905385 0
 0.1099023750133 1.017307692308e-06 0 4.06882e-07 0 0.992094614644 250 250.992094615 249.007905385 0
 0.1099023750133 2.339807692069e-06 0 9.35704e-07 0 0.992094614644 250 250.992094615 249.007905385 0
 0.1099716822201 0.0001090962953304 0 4.31624e-05 0 0.992094614644 250 250.992094615 249.007905385 0
 0.1099353897455 0.0001076366377965 0 4.25912e-05 0 0.992094614644 250 250.992094615 249.007905385 0
 0.1099023750133 4.059057689589e-06 0 1.62296e-06 0 0.992094614644 250 250.992094615 249.007905385 0
 0.1099023750133 6.294082673221e-06 0 2.51605e-06 0 0.992094614644 250 250.992094615 249.007905385 0
 0.1099023750133 9.199615090105e-06 0 3.67646e-06 0 0.992094614644 250 250.992094615 249.007905385 0
 0.1099023750132 1.297680700387e-05 0 5.18399e-06 0 0.992094614644 250 250.992094615 249.007905385 0
 0.1099023750118 1.78871578966e-05 0 7.14207e-06 0 0.992094614644 250 250.992094615 249.007905385 0
 0.1099023749653 2.427062814094e-05 0 9.68469e-06 0 0.992094614644 250 250.992094615 249.007905385 0
 0.1099023746832 3.25695957484e-05 0 1.29854e-05 0 0.992094614644 250 250.992094615 249.007905385 0
 0.1099023695232 4.335941640279e-05 0 1.72686e-05 0 0.992094614644 250 250.992094615 249.007905385 0
 0.1099023561811 5.741538164242e-05 0 2.28343e-05 0 0.992094614644 250 250.992094615 249.007905385 0
 0.1099021578558 7.567843291834e-05 0 3.00423e-05 0 0.992094614644 250 250.992094615 249.007905385 0
 0.1099020621657 0.0001001269313642 0 3.96498e-05 0 0.992094614644 250 250.992094615 249.007905385 0
 0.11 0.0001279124822337 0 5.05105e-05 0 0.992094614644 250 250.992094615 249.007905385 0
 0.1098327137736 0 0 0 0 0.992094614644 250 250.992094615 249.007905385 0
 0.1098720875178 1.017307692457e-06 0 4.06882e-07 0 0.992094614644 250 250.992094615 249.007905385 0
 0.1098720875178 2.339807693842e-06 0 9.35704e-07 0 0.992094614644 250 250.992094615 249.007905385 0
 0.1099629702866 0.0001428271592096 0 5.63149e-05 0 0.992094614644 250 250.992094615 249.007905385 0
 0.1099152315363 0.0001409334561149 0 5.55789e-05 0 0.992094614644 250 250.992094615 249.007905385 0
 0.1098720875177 4.059057702261e-06 0 1.62296e-06 0 0.992094614644 250 250.992094615 249.007905385 0
 0.1098720875174 6.294082744794e-06 0 2.51605e-06 0 0.992094614644 250 250.992094615 249.007905385 0
 0.1098720875163 9.199615438674e-06 0 3.67646e-06 0 0.992094614644 250 250.992094615 249.007905385 0
 0.1098720875124 1.297680852268e-05 0 5.18399e-06 0 0.992094614644 250 250.992094615 249.007905385 0
 0.1098720874989 1.788716193005e-05 0 7.14207e-06 0 0.992094614644 250 250.992094615 249.007905385 0
 0.1098720874545 2.427063377246e-05 0 9.68469e-06 0 0.992094614644 250 250.992094615 249.007905385 0
 0.1098720872654 3.256920576105e-05 0 1.29853e-05 0 0.992094614644 250 250.992094615 249.007905385 0
 0.1098720865271 4.335809101047e-05 0 1.7268e-05 0 0.992094614644 250 250.992094615 249.007905385 0
 0.1098720788072 5.738567590661e-05 0 2.28225e-05 0 0.992094614644 250 250.992094615 249.007905385 0
 0.1098720588967 7.566123028067e-05 0 3.00355e-05 0 0.992094614644 250 250.992094615 249.007905385 0
 0.1098717952961 9.941172170173e-05 0 3.93694e-05 0 0.992094614644 250 250.992094615 249.007905385 0
 0.1098716557786 0.0001312209743092 0 5.17996e-05 0 0.992094614644 250 250.992094615 249.007905385 0
 0.11 0.0001672862264039 0 6.57951e-05 0 0.992094614644 250 250.992094615 249.007905385 0
 0.1097815279062 0 0 0 0 0.992094614644 250 250.992094615 249.007905385 0
 0.1098327137736 1.01730769233e-06 0 4.06882e-07 0 0.992094614644 250 250.992094615 249.007905385 0
 0.1098327137737 2.339807314582e-06 0 9.35704e-07 0 0.992094614644 250 250.992094615 249.007905385 0
 0.1099516668884 0.0001866722792831 0 7.32751e-05 0 0.992094614644 250 250.992094615 249.007905385 0
 0.1098891411323 0.0001841971168965 0 7.23217e-05 0 0.992094614644 250 250.992094615 249.007905385 0
 0.109832713774 4.059055430949e-06 0 1.62296e-06 0 0.992094614644 250 250.992094615 249.007905385 0
 0.1098327137752 6.294073981867e-06 0 2.51604e-06 0 0.992094614644 250 250.992094615 249.007905385 0
 0.1098327137792 9.19958776071e-06 0 3.67645e-06 0 0.992094614644 250 250.992094615 249.007905385 0
 0.1098327137926 1.297673051261e-05 0 5.18396e-06 0 0.992094614644 250 250.992094615 249.007905385 0
 0.1098327138345 1.788695733471e-05 0 7.14199e-06 0 0.992094614644 250 250.992094615 249.007905385 0
 0.1098327139617 2.427011981702e-05 0 9.68449e-06 0 0.992094614644 250 250.992094615 249.007905385 0
 0.1098327143369 3.256794782999e-05 0 1.29848e-05 0 0.992094614644 250 250.992094615 249.007905385 0
 0.1098327153495 4.335456260705e-05 0 1.72666e-05 0 0.992094614644 250 250.992094615 249.007905385 0
 0.1098327179335 5.737683363989e-05 0 2.2819e-05 0 0.992094614644 250 250.992094615 249.007905385 0
 0.1098327174755 7.560601362273e-05 0 3.00138e-05 0 0.992094614644 250 250.992094615 249.007905385 0
 0.1098327161531 9.935154429678e-05 0 3.93458e-05 0 0.992094614644 250 250.992094615 249.007905385 0
 0.1098324310189 0.0001302074917641 0 5.14048e-05 0 0.992094614644 250 250.992094615 249.007905385 0
 0.1098323971891 0.0001715441663076 0 6.74406e-05 0 0.992094614644 250 250.992094615 249.007905385 0
 0.11 0.000218472093825 0 8.54796e-05 0 0.992094614644 250 250.992094615 249.007905385 0
 0.1097149862785 0 0 0 0 0.992094614644 250 250.992094615 249.007905385 0
 0.1097815279062 1.017308602968e-06 0 4.06882e-07 0 0.992094614644 250 250.992094615 249.007905385 0
 0.1097815279062 2.339812473044e-06 0 9.35706e-07 0 0.992094614644 250 250.992094615 249.007905385 0
 0.1099369812562 0.0002436621261003 0 9.509e-05 0 0.992094614644 250 250.992094615 249.007905385 0
 0.1098553016239 0.0002405026412014 0 9.38874e-05 0 0.992094614644 250 250.992094615 249.007905385 0
 0.1097815279064 4.059074597686e-06 0 1.62297e-06 0 0.992094614644 250 250.992094615 249.007905385 0
 0.1097815279071 6.294132942883e-06 0 2.51607e-06 0 0.992094614644 250 250.992094615 249.007905385 0
 0.1097815279097 9.199750736915e-06 0 3.67651e-06 0 0.992094614644 250 250.992094615 249.007905385 0
 0.1097815279192 1.297715138106e-05 0 5.18412e-06 0 0.992094614644 250 250.992094615 249.007905385 0
 0.1097815279504 1.788799457153e-05 0 7.1424e-06 0 0.992094614644 250 250.992094615 249.007905385 0
 0.1097815280496 2.427258943375e-05 0 9.68547e-06 0 0.992094614644 250 250.992094615 249.007905385 0
 0.1097815283533 3.257366273787e-05 0 1.2987e-05 0 0.992094614644 250 250.992094615 249.007905385 0
 0.1097815292555 4.33674399965e-05 0 1.72717e-05 0 0.992094614644 250 250.992094615 249.007905385 0
 0.1097815317728 5.740437917314e-05 0 2.28299e-05 0 0.992094614644 250 250.992094615 249.007905385 0
 0.1097815384842 7.566345536861e-05 0 3.00364e-05 0 0.992094614644 250 250.992094615 249.007905385 0
 0.1097815467858 9.942164730731e-05 0 3.93733e-05 0 0.992094614644 250 250.992094615 249.007905385 0
 0.1097815668511 0.0001304031159672 0 5.1481e-05 0 0.992094614644 250 250.992094615 249.007905385 0
 0.1097812389962 0.0001706938278727 0 6.71121e-05 0 0.992094614644 250 250.992094615 249.007905385 0
 0.1097812829806 0.0002246261253819 0 8.78322e-05 0 0.992094614644 250 250.992094615 249.007905385 0
 0.11 0.0002850137214725 0 0.000110756 0 0.992094614644 250 250.992094615 249.007905385 0
 0.1096284821626 0 0 0 0 0.992094614644 250 250.992094615 249.007905385 0
 0.1097149863839 1.017307925945e-06 0 4.06882e-07 0 0.992094614644 250 250.992094615 249.007905385 0
 0.1097149866832 2.339809397341e-06 0 9.35705e-07 0 0.992094614644 250 250.992094615 249.007905385 0
 0.1099176554753 0.0003179011061768 0 0.000123118 0 0.992094614644 250 250.992094615 249.007905385 0
 0.1098116766534 0.0003144728909011 0 0.000121833 0 0.992094614644 250 250.992094615 249.007905385 0
 0.1097149873463 4.059064875865e-06 0 1.62297e-06 0 0.992094614644 250 250.992094615 249.007905385 0
 0.1097149886708 6.294106516528e-06 0 2.51606e-06 0 0.992094614644 250 250.992094615 249.007905385 0
 0.1097149911725 9.199684384413e-06 0 3.67649e-06 0 0.992094614644 250 250.992094615 249.007905385 0
 0.1097149957371 1.297699243039e-05 0 5.18406e-06 0 0.992094614644 250 250.992094615 249.007905385 0
 0.1097150038725 1.788762522848e-05 0 7.14225e-06 0 0.992094614644 250 250.992094615 249.007905385 0
 0.109715018121 2.427174982472e-05 0 9.68514e-06 0 0.992094614644 250 250.992094615 249.007905385 0
 0.1097150427112 3.257178859132e-05 0 1.29863e-05 0 0.992094614644 250 250.992094615 249.007905385 0
 0.1097150845365 4.336332814252e-05 0 1.72701e-05 0 0.992094614644 250 250.992094615 249.007905385 0
 0.1097151544652 5.739553825819e-05 0 2.28264e-05 0 0.992094614644 250 250.992094615 249.007905385 0
 0.1097152685643 7.564412749338e-05 0 3.00288e-05 0 0.992094614644 250 250.992094615 249.007905385 0
 0.1097154479945 9.938184299533e-05 0 3.93577e-05 0 0.992094614644 250 250.992094615 249.007905385 0
 0.1097157026169 0.0001302687219667 0 5.14287e-05 0 0.992094614644 250 250.992094615 249.007905385 0
 0.1097160369443 0.0001705466381053 0 6.70552e-05 0 0.992094614644 250 250.992094615 249.007905385 0
 0.1097159235639 0.0002229327802152 0 8.71852e-05 0 0.992094614644 250 250.992094615 249.007905385 0
 0.1097162072032 0.0002932057420083 0 0.000113844 0 0.992094614644 250 250.992094615 249.007905385 0
 0.11 0.0003715178374143 0 0.000143086 0 0.992094614644 250 250.992094615 249.007905385 0
 0.1095160268119 0 0 0 0 0.992094614644 250 250.992094615 249.007905385 0
 0.1096284821977 1.033164580744e-06 0 4.13223e-07 0 0.992094614644 250 250.992094615 249.007905385 0
 0.109628482326 2.376274992228e-06 0 9.50284e-07 0 0.992094614644 250 250.992094615 249.007905385 0
 0.1098908402847 0.000415432333562 0 0.00015927 0 0.992094614644 250 250.992094615 249.007905385 0
 0.1097540017503 0.0004126614352054 0 0.000158253 0 0.992094614644 250 250.992094615 249.007905385 0
 0.109628482632 4.122308989659e-06 0 1.64824e-06 0 0.992094614644 250 250.992094615 249.007905385 0
 0.1096284832653 6.392129279702e-06 0 2.55522e-06 0 0.992094614644 250 250.992094615 249.007905385 0
 0.1096284844856 9.342838179966e-06 0 3.73364e-06 0 0.992094614644 250 250.992094615 249.007905385 0
 0.1096284867407 1.317862524408e-05 0 5.2645e-06 0 0.992094614644 250 250.992094615 249.007905385 0
 0.1096284907956 1.816483955997e-05 0 7.25274e-06 0 0.992094614644 250 250.992094615 249.007905385 0
 0.1096284979452 2.464621911392e-05 0 9.83419e-06 0 0.992094614644 250 250.992094615 249.007905385 0
 0.1096285103544 3.30704499891e-05 0 1.31844e-05 0 0.992094614644 250 250.992094615 249.007905385 0
 0.1096285315805 4.401850124874e-05 0 1.75299e-05 0 0.992094614644 250 250.992094615 249.007905385 0
 0.1096285673036 5.824346967465e-05 0 2.31617e-05 0 0.992094614644 250 250.992094615 249.007905385 0
 0.1096286261604 7.671997005067e-05 0 3.04525e-05 0 0.992094614644 250 250.992094615 249.007905385 0
 0.1096287200134 0.0001007065173375 0 3.98769e-05 0 0.992094614644 250 250.992094615 249.007905385 0
 0.1096288620469 0.0001318258869224 0 5.20352e-05 0 0.992094614644 250 250.992094615 249.007905385 0
 0.1096290437241 0.0001721663795791 0 6.76809e-05 0 0.992094614644 250 250.992094615 249.007905385 0
 0.1096292407656 0.0002245209271288 0 8.7792e-05 0 0.992094614644 250 250.992094615 249.007905385 0
 0.1096287055252 0.0002922405737651 0 0.00011348 0 0.992094614644 250 250.992094615 249.007905385 0
 0.1096284985726 0.0003824536546034 0 0.000147131 0 0.992094614644 250 250.992094615 249.007905385 0
 0.11 0.0004839731881386 0 0.00018422 0 0.992094614644 250 250.992094615 249.007905385 0
 0.1093572144285 0 0 0 0 0.992094614644 250 250.992094615 249.007905385 0
 0.1095160266958 1.024077010253e-06 0 4.09589e-07 0 0.992094614644 250 250.992094615 249.007905385 0
 0.1095160263551 2.355376151709e-06 0 9.41929e-07 0 0.992094614644 250 250.992094615 249.007905385 0
 0.1098561798577 0.000546955728795 0 0.000206816 0 0.992094614644 250 250.992094615 249.007905385 0
 0.1096754793468 0.0005415819892102 0 0.0002049 0 0.992094614644 250 250.992094615 249.007905385 0
 0.1095160255916 4.086062314825e-06 0 1.63376e-06 0 0.992094614644 250 250.992094615 249.007905385 0
 0.1095160240574 6.335947361644e-06 0 2.53277e-06 0 0.992094614644 250 250.992094615 249.007905385 0
 0.1095160211485 9.260780958677e-06 0 3.70088e-06 0 0.992094614644 250 250.992094615 249.007905385 0
 0.1095160158243 1.306302458972e-05 0 5.21838e-06 0 0.992094614644 250 250.992094615 249.007905385 0
 0.1095160063041 1.800584876493e-05 0 7.18937e-06 0 0.992094614644 250 250.992094615 249.007905385 0
 0.1095159895605 2.443130963321e-05 0 9.74865e-06 0 0.992094614644 250 250.992094615 249.007905385 0
 0.1095159604843 3.278393574196e-05 0 1.30706e-05 0 0.992094614644 250 250.992094615 249.007905385 0
 0.1095159105374 4.364129959303e-05 0 1.73803e-05 0 0.992094614644 250 250.992094615 249.007905385 0
 0.1095158256583 5.775357185895e-05 0 2.2968e-05 0 0.992094614644 250 250.992094615 249.007905385 0
 0.1095156832219 7.609456970861e-05 0 3.02062e-05 0 0.992094614644 250 250.992094615 249.007905385 0
 0.1095154481942 9.992745643533e-05 0 3.95716e-05 0 0.992094614644 250 250.992094615 249.007905385 0
 0.1095150695698 0.0001308891531837 0 5.16704e-05 0 0.992094614644 250 250.992094615 249.007905385 0
 0.1095144808537 0.0001711009734042 0 6.72694e-05 0 0.992094614644 250 250.992094615 249.007905385 0
 0.1095135937239 0.0002233095040978 0 8.73291e-05 0 0.992094614644 250 250.992094615 249.007905385 0
 0.1095123629242 0.000291210298769 0 0.000113092 0 0.992094614644 250 250.992094615 249.007905385 0
 0.1095100974741 0.0003792457325698 0 0.000145945 0 0.992094614644 250 250.992094615 249.007905385 0
 0.1095079441682 0.0004973347840654 0 0.00018904 0 0.992094614644 250 250.992094615 249.007905385 0
 0.11 0.000642785571532 0 0.000240587 0 0.992094614644 250 250.992094615 249.007905385 0
 0.1091463252791 0 0 0 0 0.992094614644 250 250.992094615 249.007905385 0
 0.1093572143984 1.002422470888e-06 0 4.00929e-07 0 0.992094614644 250 250.992094615 249.007905385 0
 0.1093572142914 2.305573065541e-06 0 9.22017e-07 0 0.992094614644 250 250.992094615 249.007905385 0
 0.1098118919394 0.0007225450352669 0 0.000268135 0 0.992094614644 250 250.992094615 249.007905385 0
 0.1095686952105 0.0007082724001025 0 0.000263243 0 0.992094614644 250 250.992094615 249.007905385 0
 0.1093572140376 3.999672677493e-06 0 1.59923e-06 0 0.992094614644 250 250.992094615 249.007905385 0
 0.1093572135137 6.202011959919e-06 0 2.47927e-06 0 0.992094614644 250 250.992094615 249.007905385 0
 0.1093572125052 9.065076807749e-06 0 3.62274e-06 0 0.992094614644 250 250.992094615 249.007905385 0
 0.1093572106412 1.27871171782e-05 0 5.10831e-06 0 0.992094614644 250 250.992094615 249.007905385 0
 0.1093572072852 1.762589918772e-05 0 7.03793e-06 0 0.992094614644 250 250.992094615 249.007905385 0
 0.1093572013508 2.391661066329e-05 0 9.54376e-06 0 0.992094614644 250 250.992094615 249.007905385 0
 0.109357190994 3.209519914304e-05 0 1.27969e-05 0 0.992094614644 250 250.992094615 249.007905385 0
 0.1093571731054 4.272884247816e-05 0 1.70185e-05 0 0.992094614644 250 250.992094615 249.007905385 0
 0.1093571424881 5.655583858314e-05 0 2.24944e-05 0 0.992094614644 250 250.992094615 249.007905385 0
 0.10935709057 7.453803328375e-05 0 2.9593e-05 0 0.992094614644 250 250.992094615 249.007905385 0
 0.1093570035048 9.793009051403e-05 0 3.87884e-05 0 0.992094614644 250 250.992094615 249.007905385 0
 0.1093568596764 0.0001283715339423 0 5.06894e-05 0 0.992094614644 250 250.992094615 249.007905385 0
 0.1093566269997 0.0001680093607138 0 6.60747e-05 0 0.992094614644 250 250.992094615 249.007905385 0
 0.1093562620313 0.0002196621622605 0 8.59348e-05 0 0.992094614644 250 250.992094615 249.007905385 0
 0.1093556915042 0.0002870268274061 0 0.000111515 0 0.992094614644 250 250.992094615 249.007905385 0
 0.1093548739207 0.0003750615513257 0 0.000144398 0 0.992094614644 250 250.992094615 249.007905385 0
 0.1093527046369 0.0004899134385765 0 0.000186365 0 0.992094614644 250 250.992094615 249.007905385 0
 0.1093509077573 0.0006447379498724 0 0.000241268 0 0.992094614644 250 250.992094615 249.007905385 0
 0.11 0.0008536747208944 0 0.000312319 0 0.992094614644 250 250.992094615 249.007905385 0
 0.1088854973611 0 0 0 0 0.992094614644 250 250.992094615 249.007905385 0
 0.1091463253199 1.012990540438e-06 0 4.05155e-07 0 0.992094614644 250 250.992094615 249.007905385 0
 0.109146325443 2.32987848351e-06 0 9.31734e-07 0 0.992094614644 250 250.992094615 249.007905385 0
 0.1097521387572 0.0009507342511719 0 0.000344138 0 0.992094614644 250 250.992094615 249.007905385 0
 0.1094022891303 0.0009581745098715 0 0.000346546 0 0.992094614644 250 250.992094615 249.007905385 0
 0.1091463257216 4.041833416196e-06 0 1.61608e-06 0 0.992094614644 250 250.992094615 249.007905385 0
 0.1091463262839 6.267376293812e-06 0 2.50538e-06 0 0.992094614644 250 250.992094615 249.007905385 0
 0.1091463273532 9.16058547661e-06 0 3.66088e-06 0 0.992094614644 250 250.992094615 249.007905385 0
 0.1091463293142 1.292176535133e-05 0 5.16203e-06 0 0.992094614644 250 250.992094615 249.007905385 0
 0.1091463328268 1.781131725403e-05 0 7.11184e-06 0 0.992094614644 250 250.992094615 249.007905385 0
 0.1091463390162 2.41677754547e-05 0 9.64375e-06 0 0.992094614644 250 250.992094615 249.007905385 0
 0.1091463497907 3.24312622565e-05 0 1.29304e-05 0 0.992094614644 250 250.992094615 249.007905385 0
 0.109146368366 4.317399781479e-05 0 1.7195e-05 0 0.992094614644 250 250.992094615 249.007905385 0
 0.1091464001137 5.714000237786e-05 0 2.27254e-05 0 0.992094614644 250 250.992094615 249.007905385 0
 0.1091464538848 7.529679390093e-05 0 2.98919e-05 0 0.992094614644 250 250.992094615 249.007905385 0
 0.1091465439491 9.890277350427e-05 0 3.91698e-05 0 0.992094614644 250 250.992094615 249.007905385 0
 0.1091466924764 0.0001295951928442 0 5.11663e-05 0 0.992094614644 250 250.992094615 249.007905385 0