VARIABLES = "x" "y"
ZONE T="InnerCells" SOLUTIONTIME=0 DATAPACKING=POINT N=5820 E=11058 ZONETYPE=FETRIANGLE
 -5 1
 -5 1.05
 -5 1.1
 -5 1.175
 -5 1.24553846153846
 -5 1.32738461538462
 -5 1.40923076923077
 -5 1.49107692307692
 -5 1.57292307692308
 -5 1.65476923076923
 -5 1.73661538461538
 -5 1.81846153846154
 -5 1.889
 -5 1.964
 -5 2.014
 -5 2.064
 -4.92676896672747 1.44973658727716
 -4.92540950690286 1.61489238493978
 -4.92505502916726 1.53184240467158
 -4.92421192780672 1.70069945433989
 -4.92395894281057 1.78611941137071
 -4.92287827889997 1.36420550832889
 -4.92277245907049 1.27777389999681
 -4.91666666666667 1
 -4.91666666666667 1.05
 -4.91666666666667 1.1
 -4.91666666666667 1.175
 -4.91666666666667 1.889
 -4.91666666666667 1.964
 -4.91666666666667 2.014
 -4.91666666666667 2.064
 -4.86325248629542 1.82548253938343
 -4.86172851519784 1.23886017165936
 -4.85444431547163 1.57643180944044
 -4.85278706284962 1.65697896322598
 -4.8516459953474 1.48928078037612
 -4.84956260682461 1.40579935101707
 -4.84318150747749 1.31734550983032
 -4.84302647225851 1.74658345819147
 -4.83333333333333 1
 -4.83333333333333 1.05
 -4.83333333333333 1.1
 -4.83333333333333 1.175
 -4.83333333333333 1.889
 -4.83333333333333 1.964
 -4.83333333333333 2.014
 -4.83333333333333 2.064
 -4.79357693532006 1.69064395940793
 -4.79272055921092 1.81844171121306
 -4.79013188385888 1.24570849657541
 -4.78582840044522 1.37626533275749
 -4.78358755031378 1.45150866149118
 -4.77841627563039 1.61623108642908
 -4.77220529436791 1.53201134456483
 -4.75659413640277 1.74809108973004
 -4.75076484018013 1.31822436386541
 -4.75 1
 -4.75 1.05
 -4.75 1.1
 -4.75 1.175
 -4.75 1.889
 -4.75 1.964
 -4.75 2.014
 -4.75 2.064
 -4.71701389181893 1.67249187905948
 -4.71026568886745 1.81761020264918
 -4.70835770500167 1.24409667454976
 -4.70662179795936 1.39159967868609
 -4.70415558170845 1.48633264775676
 -4.6973490238867 1.58464471023659
 -4.67600979229834 1.74448996485243
 -4.66923061382283 1.3187375421659
 -4.66666666666667 1
 -4.66666666666667 1.05
 -4.66666666666667 1.1
 -4.66666666666667 1.175
 -4.66666666666667 1.889
 -4.66666666666667 1.964
 -4.66666666666667 2.014
 -4.66666666666667 2.064
 -4.65573798877992 1.44794598728454
 -4.6344990620877 1.66373918505732
 -4.62714661541508 1.81553558812623
 -4.62448873523816 1.51117621837713
 -4.62409773200918 1.24505870237992
 -4.62054883485638 1.38231460242551
 -4.59144136407798 1.59000326902547
 -4.58797674662586 1.74168850809787
 -4.58333333333333 1
 -4.58333333333333 1.05
 -4.58333333333333 1.1
 -4.58333333333333 1.175
 -4.58333333333333 1.889
 -4.58333333333333 1.964
 -4.58333333333333 2.014
 -4.58333333333333 2.064
 -4.58243310965463 1.31176103982446
 -4.57875384826478 1.44632866658151
 -4.55094731003334 1.66701656696353
 -4.54880096562669 1.52149104229937
 -4.54469858341196 1.81554275242836
 -4.54291855719886 1.38216353511126
 -4.54229593205205 1.24416970198491
 -4.50274677763833 1.59219034786147
 -4.50220325930941 1.7412458669544
 -4.5 1
 -4.5 1.05
 -4.5 1.1
 -4.5 1.175
 -4.5 1.889
 -4.5 1.964
 -4.5 2.014
 -4.5 2.064
 -4.49887755087267 1.31197701569834
 -4.49840452571164 1.44964602725589
 -4.46064875527291 1.66831940778995
 -4.45941920790008 1.81558920615666
 -4.45877760579131 1.52133688570988
 -4.4581961102712 1.2431794123971
 -4.45793458251918 1.3803993191397
 -4.42018191520776 1.59587809687463
 -4.41922635429554 1.74208596807312
 -4.41855752745716 1.45185315750738
 -4.41701780778545 1.31200585391891
 -4.41666666666667 1
 -4.41666666666667 1.05
 -4.41666666666667 1.1
 -4.41666666666667 1.175
 -4.41666666666667 1.889
 -4.41666666666667 1.964
 -4.41666666666667 2.014
 -4.41666666666667 2.064
 -4.37626834439641 1.66851272605788
 -4.37586674705056 1.52305143455888
 -4.37549331531286 1.81570911868496
 -4.37499361062797 1.24318923704201
 -4.37487419491574 1.38122005299224
 -4.33376895825636 1.74272396904092
 -4.33362678155119 1.59602197037779
 -4.3333505119934 1.31187543253878
 -4.33333333333333 1
 -4.33333333333333 1.05
 -4.33333333333333 1.1
 -4.33333333333333 1.175
 -4.33333333333333 1.889
 -4.33333333333333 1.964
 -4.33333333333333 2.014
 -4.33333333333333 2.064
 -4.33317420067232 1.45174247277298
 -4.29261070580139 1.66971946069811
 -4.29246606506628 1.52409984654559
 -4.29209345058193 1.81588433811985
 -4.29195829752264 1.38162475583019
 -4.29157786047262 1.24324140625756
 -4.2505927365133 1.59660842157798
 -4.2504624870995 1.74271709913379
 -4.25035363452609 1.45240171369352
 -4.25006614772773 1.31194040778553
 -4.25 1
 -4.25 1.05
 -4.25 1.1
 -4.25 1.175
 -4.25 1.889
 -4.25 1.964
 -4.25 2.014
 -4.25 2.064
 -4.20844273226662 1.24331149417732
 -4.20831455795998 1.81602613834909
 -4.20830068154539 1.38167037745372
 -4.20829990996974 1.66974654130794
 -4.20819120578982 1.52413970727665
 -4.16696319627555 1.59697088478073
 -4.16684239879805 1.45249531959808
 -4.16683423024356 1.74308599526634
 -4.16666666666667 1
 -4.16666666666667 1.05
 -4.16666666666667 1.1
 -4.16666666666667 1.175
 -4.16666666666667 1.889
 -4.16666666666667 1.964
 -4.16666666666667 2.014
 -4.16666666666667 2.064
 -4.16661483517297 1.31205629022415
 -4.12514958342377 1.66991883228377
 -4.12513229369155 1.5245414651432
 -4.12510577372173 1.81601173177142
 -4.12499205909144 1.38195064722106
 -4.12493624440808 1.24326821293514
 -4.08350289011376 1.31198742545861
 -4.08333333333333 1
 -4.08333333333333 1.05
 -4.08333333333333 1.1
 -4.08333333333333 1.175
 -4.08333333333333 1.889
 -4.08333333333333 1.964
 -4.08333333333333 2.014
 -4.08333333333333 2.064
 -4.08331217961418 1.74304994771648
 -4.08329481922476 1.45249082452444
 -4.08323247328223 1.59693470154042
 -4.04176933573141 1.5244072968923
 -4.04174738094247 1.6699628704762
 -4.04169606278268 1.38185116793853
 -4.04164546747319 1.81605989973452
 -4.04164177618205 1.24339211253816
 -4.0000049505691 1.74314697150121
 -4.000000304854 1.59716945270206
 -4 1
 -4 1.05
 -4 1.1
 -4 1.175
 -4 1.889
 -4 1.964
 -4 2.014
 -4 2.064
 -3.99994637660467 1.45278705094883
 -3.99980868639394 1.31210938014391
 -3.95847808911213 1.381815373374
 -3.95847246800783 1.24323775485253
 -3.95839672565143 1.81604051625837
 -3.95838867282691 1.66993128949119
 -3.95838003659548 1.52443260257732
 -3.91669979271 1.31215558206958
 -3.91666666666667 1
 -3.91666666666667 1.05
 -3.91666666666667 1.1
 -3.91666666666667 1.175
 -3.91666666666667 1.964
 -3.91666666666667 2.014
 -3.91666666666667 2.064
 -3.91666666666666 1.88900000000001
 -3.91659229957863 1.45256049724804
 -3.9165767121754 1.74305400534012
 -3.91657225210646 1.59698338179057
 -3.87505831979015 1.52459297688042
 -3.87503001107852 1.67011454066897
 -3.87499086732188 1.81613027154837
 -3.87489419278284 1.38190296522986
 -3.87485064434904 1.24330977558567
 -3.83344882012124 1.74303082817889
 -3.83343501566532 1.45271769546398
 -3.83342847469077 1.59702405068399
 -3.83342142953491 1.31206407692769
 -3.83333333333333 1
 -3.83333333333333 1.05
 -3.83333333333333 1.1
 -3.83333333333333 1.175
 -3.83333333333333 1.964
 -3.83333333333333 2.014
 -3.83333333333333 2.064
 -3.83333333333332 1.88900000000001
 -3.79175982271542 1.2433428905533
 -3.79164825870719 1.38182123032956
 -3.79159172568426 1.81605267033172
 -3.79148854027854 1.66996353108431
 -3.79144157134294 1.52439913986873
 -3.75015412238869 1.59709753573377
 -3.7500881398591 1.45261137006688
 -3.75003256077791 1.74315108261814
 -3.75 1
 -3.75 1.05
 -3.75 1.1
 -3.75 1.175
 -3.75 1.964
 -3.75 2.014
 -3.75 2.064
 -3.74999999999998 1.88900000000002
 -3.74989768673451 1.31210490320958
 -3.7083831229027 1.81605537860779
 -3.70836427728748 1.66999478918859
 -3.70836240700708 1.52462721003376
 -3.70828569898184 1.38200749342856
 -3.70827894356968 1.24328851876493
 -3.66683215281545 1.31201098375749
 -3.66666666666667 1
 -3.66666666666667 1.05
 -3.66666666666667 1.1
 -3.66666666666667 1.175
 -3.66666666666667 1.964
 -3.66666666666667 2.014
 -3.66666666666667 2.064
 -3.66666666666663 1.88900000000004
 -3.66661537993392 1.74308353563241
 -3.66660542301319 1.45253574842665
 -3.6665227736093 1.59698830990058
 -3.62509017392403 1.52443233986776
 -3.62506593334806 1.66997959259053
 -3.62502037975333 1.3818678498957
 -3.62497412276216 1.81606122827912
 -3.62496623470336 1.24339391269475
 -3.58333333333333 1
 -3.58333333333333 1.05
 -3.58333333333333 1.1
 -3.58333333333333 1.175
 -3.58333333333333 1.964
 -3.58333333333333 2.014
 -3.58333333333333 2.064
 -3.58333333333326 1.88900000000007
 -3.58332367895525 1.74315299783329
 -3.58331562528535 1.59718233390216
 -3.58327031096286 1.45280096465227
 -3.5831452077214 1.31211565839434
 -3.54180714176059 1.38182278693903
 -3.54180580489884 1.24324383020378
 -3.54172474567431 1.81604513517182
 -3.54171275210425 1.66994035709958
 -3.54170427499266 1.52444097653712
 -3.50002464457145 1.3121589290291
 -3.5 1
 -3.5 1.05
 -3.5 1.1
 -3.5 1.175
 -3.5 1.964
 -3.5 2.014
 -3.5 2.064
 -3.49999999999987 1.88900000000013
 -3.49992283936274 1.45256613979696
 -3.49991055071289 1.74305639402748
 -3.49990532737954 1.59698802325207
 -3.45838991899203 1.52459747813903
 -3.45836130084514 1.67011556448006
 -3.45832482575721 1.81612951437083
 -3.45822774827917 1.38190579941163
 -3.45818619369693 1.24330785401072
 -3.41677734251022 1.74303349172487
 -3.41676570037713 1.45272000079338
 -3.41675923031925 1.31206769193264
 -3.41675608217143 1.59702715925133
 -3.41666666666667 1
 -3.41666666666667 1.05
 -3.41666666666667 1.1
 -3.41666666666667 1.175
 -3.41666666666667 1.964
 -3.41666666666667 2.014
 -3.41666666666667 2.064
 -3.41666666666643 1.88900000000023
 -3.37508670343057 1.24334579044826
 -3.37497648989349 1.3818243607167
 -3.37492442694366 1.81605512608374
 -3.37482285689563 1.66996744496342
 -3.37477406846342 1.5244022021856
 -3.33348987878684 1.5970984868596
 -3.33342197131657 1.4526136394965
 -3.33336926253015 1.74314986463715
 -3.33333333333333 1
 -3.33333333333333 1.05
 -3.33333333333333 1.1
 -3.33333333333333 1.175
 -3.33333333333333 1.964
 -3.33333333333333 2.014
 -3.33333333333333 2.064
 -3.33333333333291 1.88900000000043
 -3.33322883347682 1.31210284976567
 -3.29171417015494 1.81605550943741
 -3.29169159303562 1.52462947778751
 -3.29169127761627 1.66999661456557
 -3.2916223882974 1.38200936100498
 -3.29161897518891 1.2432895187785
 -3.25016066780804 1.31201449417439
 -3.25 1
 -3.25 1.05
 -3.25 1.1
 -3.25 1.175
 -3.25 1.964
 -3.25 2.014
 -3.25 2.064
 -3.24999999999922 1.88900000000078
 -3.24994751164842 1.74308819124254
 -3.24993632049801 1.45253680340291
 -3.24985570205958 1.59699163081297
 -3.20842657079465 1.52443313490006
 -3.20840413021362 1.66997870541769
 -3.20835132613754 1.38186774813283
 -3.20831008207356 1.8160607882239
 -3.20829490014262 1.24339169205974
 -3.16666666666667 1
 -3.16666666666667 1.05
 -3.16666666666667 1.1
 -3.16666666666667 1.175
 -3.16666666666667 1.964
 -3.16666666666667 2.014
 -3.16666666666667 2.064
 -3.16666666666523 1.88900000000144
 -3.16665439400389 1.74315277553506
 -3.16664498894061 1.59718393340805
 -3.16660374091858 1.4528028500245
 -3.16648545762668 1.31211479743654
 -3.12513977741159 1.38182326242078
 -3.12513962031088 1.24324693276347
 -3.1250562037079 1.81604733074662
 -3.12504411945579 1.66994387291398
 -3.12503546116656 1.52444137972616
 -3.08335060590895 1.31215870810463
 -3.08333333333333 1
 -3.08333333333333 1.05
 -3.08333333333333 1.1
 -3.08333333333333 1.175
 -3.08333333333333 1.964
 -3.08333333333333 2.014
 -3.08333333333333 2.064
 -3.0833333333307 1.88900000000264
 -3.08325597693692 1.45256631575559
 -3.08324672215018 1.74305700967445
 -3.08324203625648 1.59698831497772
 -3.0417236396131 1.52459831663038
 -3.04169443958998 1.67011473175957
 -3.04165941129646 1.81612842431504
 -3.04156260474364 1.38190480178109
 -3.0415220648027 1.24330437268303
 -3.00010670256851 1.74303502611965
 -3.00009781567591 1.31206851155357
 -3.00009775170363 1.4527186569463
 -3.0000850408647 1.59702758594794
 -3 1
 -3 1.05
 -3 1.1
 -3 1.175
 -3 1.964
 -3 2.014
 -3 2.064
 -2.99999999999516 1.88900000000484
 -2.95841391422323 1.24334717693004
 -2.95830508113556 1.38182386625229
 -2.95825735341517 1.81605694903342
 -2.95815769693516 1.66996922716137
 -2.9581070107709 1.52440167635027
 -2.91682588519847 1.59709625525766
 -2.91675581789559 1.45261166658728
 -2.91670621226292 1.74314720305335
 -2.91666666666667 1
 -2.91666666666667 1.05
 -2.91666666666667 1.1
 -2.91666666666667 1.175
 -2.91666666666667 2.014
 -2.91666666666667 2.064
 -2.91666666666666 1.964
 -2.91666666665778 1.88900000000888
 -2.9165597743731 1.31209772790586
 -2.8750452163972 1.81605481844531
 -2.87502107101242 1.52462760101102
 -2.87501837300193 1.66999579855706
 -2.8749592505037 1.382007146019
 -2.87495878573277 1.24328866331404
 -2.83348892422456 1.31201456126626
 -2.83333333333333 1
 -2.83333333333333 1.05
 -2.83333333333333 1.1
 -2.83333333333333 1.175
 -2.83333333333333 1.96400000000001
 -2.83333333333333 2.014
 -2.83333333333333 2.064
 -2.83333333331703 1.8890000000163
 -2.83327929964184 1.74309086695806
 -2.83326629523468 1.45253307449525
 -2.83318786542649 1.59699105539507
 -2.79176193196749 1.52442867724915
 -2.79174184907991 1.66997453150524
 -2.79168110425085 1.38186253719625
 -2.79164598788605 1.81605929096755
 -2.79162330714908 1.24338753598159
 -2.75 1
 -2.75 1.05
 -2.75 1.1
 -2.75 1.175
 -2.75 2.014
 -2.75 2.064
 -2.74999999999998 1.96400000000002
 -2.74999999997007 1.88900000002991
 -2.74998468294521 1.74315007890538
 -2.74997417921722 1.59718064790182
 -2.74993733466966 1.45279890955442
 -2.74982532847746 1.3121098051737
 -2.70847302873237 1.24324733860274
 -2.70847169523211 1.38181802219488
 -2.70838746219933 1.81604825164812
 -2.70837497247876 1.66994348677988
 -2.70836563637827 1.52443596462527
 -2.6666766923534 1.31215412187618
 -2.66666666666667 1
 -2.66666666666667 1.05
 -2.66666666666667 1.1
 -2.66666666666667 1.175
 -2.66666666666667 2.014
 -2.66666666666667 2.064
 -2.66666666666663 1.96400000000004
 -2.66666666661174 1.88900000005489
 -2.66658866260751 1.45255994533216
 -2.66658317838186 1.74305492037216
 -2.66657860827433 1.59698330354359
 -2.62505848400889 1.52459284106959
 -2.62502750421778 1.6701096928633
 -2.62499377505056 1.81612593252079
 -2.62489848128413 1.38189798422357
 -2.62485842534164 1.24329875173633
 -2.58343713788283 1.7430341023165
 -2.58343658339933 1.31206483760683
 -2.58343082549151 1.45271159442223
 -2.58341555956462 1.59702326116451
 -2.58333333333333 1
 -2.58333333333333 1.05
 -2.58333333333333 1.1
 -2.58333333333333 1.175
 -2.58333333333333 2.014
 -2.58333333333333 2.064
 -2.58333333333324 1.96400000000009
 -2.58333333323254 1.88900000010071
 -2.54174183043316 1.24334659565017
 -2.54163555453244 1.38181893008441
 -2.54159073230489 1.81605761137213
 -2.54149363897624 1.66996759384826
 -2.54144128351969 1.52439624609577
 -2.50016498701768 1.59709058043746
 -2.5000938529714 1.45260544354576
 -2.50004443780596 1.74314280770154
 -2.5 1
 -2.5 1.05
 -2.5 1.1
 -2.5 1.175
 -2.5 2.014
 -2.5 2.064
 -2.49999999999979 1.9640000000002
 -2.49999999981503 1.88900000018477
 -2.49989372360105 1.31208996885882
 -2.45837744208463 1.81605353301414
 -2.45835411134614 1.52462391447112
 -2.45834855199282 1.66999350724317
 -2.45829978433985 1.24328724234802
 -2.45829839618611 1.38200322786405
 -2.41681988047758 1.3120143827847
 -2.41666666666667 1
 -2.41666666666667 1.05
 -2.41666666666667 1.1
 -2.41666666666667 1.175
 -2.41666666666667 2.064
 -2.41666666666666 2.01400000000001
 -2.4166666666662 1.96400000000046
 -2.41666666632724 1.88900000033898
 -2.41661282259619 1.74309332919772
 -2.41660042647342 1.45252906667918
 -2.41652335854856 1.59699004549753
 -2.37510331064394 1.52442595361477
 -2.37508349601007 1.66997123508129
 -2.375016694065 1.38185929790239
 -2.37498310357629 1.81605803694086
 -2.3749535751047 1.24338399837394
 -2.33333333333333 1
 -2.33333333333333 1.05
 -2.33333333333333 1.1
 -2.33333333333333 1.175
 -2.33333333333333 2.064
 -2.33333333333331 2.01400000000002
 -2.33333333333226 1.96400000000106
 -2.33333333271052 1.88900000062178
 -2.33331743246042 1.74314905028246
 -2.3333069046987 1.59718109596749
 -2.33327411023745 1.45279948417472
 -2.33316790183776 1.31210812239368
 -2.29180853751892 1.24325085003008
 -2.29180811366599 1.38181897230637
 -2.29171990711383 1.81605038640752
 -2.29170914994842 1.66994692062488
 -2.29170107908617 1.52443650579721
 -2.25000522143928 1.31215550216255
 -2.25 1
 -2.25 1.05
 -2.25 1.1
 -2.25 1.175
 -2.25 2.064
 -2.24999999999995 2.01400000000005
 -2.24999999999755 1.96400000000242
 -2.24999999885729 1.88900000114035
 -2.24992627986056 1.45256241217669
 -2.24992115807592 1.7430561155939
 -2.24991911841763 1.59698501937593
 -2.20839552347307 1.5245976636001
 -2.2083638213861 1.67011108394601
 -2.20832959441003 1.81612542917931
 -2.20823625840596 1.38190091045648
 -2.20819553013398 1.24329680529709
 -2.16677794752101 1.31207012011115
 -2.16676773286667 1.74303740891281
 -2.16676637746056 1.45271558091956
 -2.16674708043777 1.59702770542284
 -2.16666666666667 1
 -2.16666666666667 1.05
 -2.16666666666667 1.1
 -2.16666666666667 1.175
 -2.16666666666667 2.064
 -2.16666666666655 2.01400000000011
 -2.16666666666108 1.9640000000055
 -2.16666666457029 1.88900000209101
 -2.12506989671773 1.24335067180127
 -2.1249674431268 1.38182474373759
 -2.12492480136126 1.81606053305659
 -2.12483175127822 1.66997299811167
 -2.12477902960911 1.52440181138346
 -2.08350455046053 1.59709418124676
 -2.08343081203161 1.45261206578023
 -2.08338379142094 1.74314239043361
 -2.08333333333333 1
 -2.08333333333333 1.05
 -2.08333333333333 1.1
 -2.08333333333333 1.175
 -2.08333333333333 2.064
 -2.08333333333305 2.01400000000028
 -2.08333333332061 1.96400000001253
 -2.08333332948785 1.88900000383325
 -2.08322675548877 1.31209099297234
 -2.04170942203988 1.8160538958647
 -2.04168723218131 1.5246291820843
 -2.04167843546428 1.66999663859401
 -2.04164144140442 1.24329006900678
 -2.04163904102116 1.38200879141174
 -2.00015116141771 1.31202146367951
 -2 1
 -2 1.05
 -2 1.1
 -2 1.175
 -2 2.064
 -1.9999999999993 2.0140000000007
 -1.99999999997102 1.96400000002849
 -1.99999999294712 1.88900000702502
 -1.9999491563846 1.74309781382528
 -1.99993736979732 1.45253383111215
 -1.99986296887412 1.59699491919767
 -1.95844733765654 1.52442898513228
 -1.95842826205675 1.6699694183156
 -1.95835322923729 1.38186349100932
 -1.95832183231746 1.81605657270444
 -1.95828444811017 1.24338390041184
 -1.91666666666667 1
 -1.91666666666667 1.05
 -1.91666666666667 1.1
 -1.91666666666667 1.175
 -1.91666666666667 2.064
 -1.91666666666492 2.01400000000175
 -1.91666666660071 1.96400000006473
 -1.91666665373363 1.88900001286965
 -1.91665464855824 1.74314547496602
 -1.91664680683533 1.59718045806004
 -1.91661792571945 1.45280326338244
 -1.91651469361408 1.31211063542258
 -1.87515287033795 1.38182185079176
 -1.87514623919094 1.24325569394574
 -1.87505604932583 1.81604971763986
 -1.87505408677584 1.66994497299356
 -1.8750485928726 1.52443491837087
 -1.83334507490879 1.31215860661123
 -1.83333333333333 1
 -1.83333333333333 1.05
 -1.83333333333333 1.1
 -1.83333333333333 1.175
 -1.83333333333333 2.064
 -1.83333333332899 2.01400000000434
 -1.83333333318339 1.96400000014691
 -1.83333330962323 1.88900002356604
 -1.83328229506997 1.45256300845397
 -1.83327968703957 1.59697865379456
 -1.83327234752925 1.74304889475712
 -1.79175855150174 1.52459251863541
 -1.79172120804968 1.67009668729629
 -1.79167486511491 1.81611665010803
 -1.79159509067479 1.38190409191433
 -1.79154091431152 1.24329775298041
 -1.75013291317727 1.31207522015282
 -1.75012986970304 1.45271070204923
 -1.75011542667413 1.74302438240051
 -1.75010706298064 1.59701276882059
 -1.75 1
 -1.75 1.05
 -1.75 1.1
 -1.75 1.175
 -1.75 2.064
 -1.74999999998922 2.01400000001078
 -1.74999999965947 1.96400000033301
 -1.74999995654486 1.88900004312806
 -1.70841205397524 1.24335260897012
 -1.70833442981858 1.38182520231311
 -1.70826917073677 1.81605301638535
 -1.70820682789612 1.66995386931127
 -1.7081625227043 1.52439063225002
 -1.66689383000949 1.59707371520276
 -1.66681678130132 1.45261415713059
 -1.66675772735251 1.74311398251178
 -1.66666666666667 1
 -1.66666666666667 1.05
 -1.66666666666667 1.1
 -1.66666666666667 1.175
 -1.66666666666667 2.064
 -1.66666666663989 2.01400000002678
 -1.66666666589418 1.9640000007538
 -1.66666658705183 1.88900007887315
 -1.6665987240122 1.31210100100496
 -1.62505718983746 1.81603617615139
 -1.62505240232377 1.52461368093656
 -1.62503158370999 1.6699696094878
 -1.62500778877539 1.38202216687267
 -1.62498792162334 1.24330586118926
 -1.58349059501759 1.3120165924926
 -1.58333333333333 1
 -1.58333333333333 1.05
 -1.58333333333333 1.1
 -1.58333333333333 1.175
 -1.58333333333333 2.064
 -1.58333333326683 2.0140000000665
 -1.58333333158325 1.96400000170368
 -1.58333318753406 1.8890001441197
 -1.58332118148842 1.45252095740892
 -1.58330068123138 1.74307493462743
 -1.58325098486055 1.59695927571251
 -1.54184778475209 1.52442821572341
 -1.54183350751124 1.66992408415874
 -1.54174041622834 1.38187528124963
 -1.54167609448407 1.81603431741712
 -1.54165482554623 1.24338430134471
 -1.5 1
 -1.5 1.05
 -1.5 1.1
 -1.5 1.175
 -1.5 2.064
 -1.49999999983487 2.01400000016513
 -1.49999999604086 1.96400000384392
 -1.49999973314196 1.88900026306015
 -1.49999829799794 1.7431130695322
 -1.49996439593992 1.45282655134024
 -1.49996177754511 1.59717585921552
 -1.4999032630303 1.31218016545404
 -1.4584564559966 1.38181020476221
 -1.45841730784288 1.24325888610117
 -1.45839808165674 1.52437139903136
 -1.45837795937906 1.81603434586271
 -1.45836444959972 1.669906471959
 -1.41669762045354 1.59693871931965
 -1.41666666666667 1
 -1.41666666666667 1.05
 -1.41666666666667 1.1
 -1.41666666666667 1.175
 -1.41666666666667 2.064
 -1.41666666625661 2.01400000041005
 -1.41666665772447 1.96400000865608
 -1.41666617856136 1.88900047953144
 -1.4166497290408 1.31211110086223
 -1.41664378284785 1.74300369750091
 -1.41663419739801 1.45258920146117
 -1.37500240012752 1.24337837927504
 -1.37499829907778 1.81609972051365
 -1.37499712824085 1.38200515637709
 -1.37499623227193 1.67009773730224
 -1.37499255054793 1.52467963700477
 -1.33336078640317 1.45258640349696
 -1.33334745599144 1.31211550898494
 -1.33334519650728 1.74300334445728
 -1.33333333333333 1
 -1.33333333333333 1.05
 -1.33333333333333 1.1
 -1.33333333333333 1.175
 -1.33333333333333 2.064
 -1.33333333231509 2.01400000101824
 -1.33333331317262 1.96400001945023
 -1.33333244128735 1.8890008727249
 -1.33329046225789 1.59693648943939
 -1.29163265146428 1.66991101739986
 -1.29161983185267 1.81603690630386
 -1.29160004911341 1.52437661569376
 -1.29156987915436 1.24325864820216
 -1.29153157948634 1.38181627530134
 -1.25008943678378 1.3121708384178
 -1.25001585782679 1.59717681716844
 -1.25001017289348 1.45282521345836
 -1.25 1
 -1.25 1.05
 -1.25 1.1
 -1.25 1.175
 -1.25 2.064
 -1.24999999747151 2.01400000252849
 -1.24999995463833 1.96400004359739
 -1.24999837138476 1.88900158516044
 -1.24998805716343 1.74311361786714
 -1.20835636512365 1.24338665110929
 -1.20831479761884 1.8160375695243
 -1.20826510251872 1.38186744388367
 -1.20814977798519 1.66992624864509
 -1.2081398890313 1.52442468353222
 -1.16674068204889 1.59696402413166
 -1.16669170692502 1.74307966423258
 -1.16667177752505 1.45253060624422
 -1.16666666666667 1
 -1.16666666666667 1.05
 -1.16666666666667 1.1
 -1.16666666666667 1.175
 -1.16666666666667 2.064
 -1.16666666038795 2.01400000627872
 -1.16666656483536 1.96400009745019
 -1.16666369700964 1.88900287212643
 -1.16648775587165 1.31203253176245
 -1.12499278001616 1.24329028416902
 -1.12495382017485 1.3820114540826
 -1.12493519380785 1.66997156196634
 -1.12492605675706 1.81604033307261
 -1.1249067423045 1.52460988400906
 -1.08341765856776 1.31208464123654
 -1.08333333333333 1
 -1.08333333333333 1.05
 -1.08333333333333 1.1
 -1.08333333333333 1.175
 -1.08333333333333 2.064
 -1.08333331774207 2.01400001559126
 -1.08333310532496 1.9640002171289
 -1.08332792667686 1.88900518821848
 -1.08322560628593 1.74311872099344
 -1.08316915274023 1.45260142289894
 -1.08308614285613 1.59707232527026
 -1.04181149375256 1.52439049006865
 -1.04175796609433 1.66995727278369
 -1.04171074719377 1.81606036095249
 -1.04165292307747 1.38183178713899
 -1.041583830517 1.24336808420116
 -1 1
 -1 1.05
 -1 1.1
 -1 1.175
 -1 2.064
 -0.999999961283919 2.01400003871608
 -0.999999490971748 1.96400048200985
 -0.999990174797292 1.88900933690365
 -0.999850389771253 1.74303298856901
 -0.999847909980995 1.59701069970957
 -0.999823183303006 1.45269886635183
 -0.999813726815204 1.31206024879097
 -0.958460987368646 1.24327462528947
 -0.958383476772866 1.3818777549427
 -0.95829640435904 1.8161275703136
 -0.9582348778676 1.67009783745372
 -0.958196124783842 1.52457998328883
 -0.916682564745655 1.45254712380362
 -0.916667212796903 1.74305976066907
 -0.916666666666667 1
 -0.916666666666667 1.05
 -0.916666666666667 1.1
 -0.916666666666667 1.175
 -0.916666666666667 2.064
 -0.916666570527241 2.01400009613942
 -0.916665534084225 1.96400106547182
 -0.91666041016865 1.31215619319068
 -0.916655947260932 1.59697293621883
 -0.916648851913514 1.88901672453846
 -0.874898929876664 1.81607085760785
 -0.87488577493282 1.52442078500153
 -0.874879026115577 1.66995054587108
 -0.874813614529226 1.2432530579463
 -0.874781217053684 1.38180540103885
 -0.833443839233603 1.31206591248535
 -0.833333333333333 1
 -0.833333333333333 1.05
 -0.833333333333333 1.1
 -0.833333333333333 1.175
 -0.833333333333333 2.064
 -0.833333094600757 2.01400023873254
 -0.833330823092611 1.96400234345744
 -0.833303370865792 1.45276854356596
 -0.833301117315627 1.88902978082215
 -0.833255320312104 1.74315877219739
 -0.833252069333778 1.59716786922679
 -0.79172262921986 1.24336811563278
 -0.791607617897844 1.38182169318681
 -0.791593427109152 1.81608908313764
 -0.791450945016781 1.52439447236742
 -0.791448596260602 1.66996829757847
 -0.75 1
 -0.75 1.05
 -0.75 1.1
 -0.75 1.175
 -0.75 2.064
 -0.749999407181171 2.01400059281827
 -0.74999446111088 1.96400512377682
 -0.749989039792888 1.59697136543208
 -0.749948392215672 1.45249037367953
 -0.749941912899985 1.88905262575776
 -0.749913816269538 1.74311980635013
 -0.749776765848577 1.31200257084472
 -0.708297964069561 1.24324218367914
 -0.708227550345711 1.38192872880098
 -0.708139816852241 1.8161001572689
 -0.708121004944197 1.52456671673774
 -0.708109201799538 1.66998388169316
 -0.666703426511919 1.31200922791859
 -0.666666666666667 1
 -0.666666666666667 1.05
 -0.666666666666667 1.1
 -0.666666666666667 1.175
 -0.666666666666667 2.064
 -0.666665194580895 2.01400147207764
 -0.666654507248635 1.96401112187423
 -0.666562241353715 1.88909204315784
 -0.666393982795196 1.45251798874762
 -0.666375379982785 1.74316671787021
 -0.666246884836907 1.59704124127862
 -0.624925547859711 1.52428080631845
 -0.624898374597825 1.24332823685048
 -0.624860486924883 1.38171209179762
 -0.624826857331507 1.8161483009223
 -0.624818527399533 1.66993795444782
 -0.583333333333333 1
 -0.583333333333333 1.05
 -0.583333333333333 1.1
 -0.583333333333333 1.175
 -0.583333333333333 2.064
 -0.583329677814412 2.0140036554013
 -0.583306790050941 1.96402391984114
 -0.583145987605801 1.8891586280181
 -0.583025965316108 1.31190542002414
 -0.582862370708332 1.4524913648977
 -0.582797654435862 1.7430239783482
 -0.582779502625648 1.59687026442872
 -0.541637278447822 1.24314931774228
 -0.541436605332009 1.38167280902327
 -0.541207279460816 1.81621154396276
 -0.541086156993622 1.5244003088558
 -0.541019874384021 1.67002688419238
 -0.5 1
 -0.5 1.05
 -0.5 1.1
 -0.5 1.175
 -0.5 2.064
 -0.499990921943026 2.01400907635463
 -0.499942372816904 1.96405078839615
 -0.499762052213171 1.31194322211921
 -0.49966356441499 1.88926716072271
 -0.499579542543653 1.45224788908332
 -0.499338352363568 1.59677220031064
 -0.499327155799968 1.74311898685604
 -0.458138995034873 1.24303003539839
 -0.457554248125846 1.38111898007508
 -0.4574839396866 1.81619379601442
 -0.457253222791078 1.52372434476363
 -0.457169607299826 1.6695532893118
 -0.416666666666667 1
 -0.416666666666667 1.05
 -0.416666666666667 1.1
 -0.416666666666667 1.175
 -0.416666666666667 2.064
 -0.416644113911433 2.01402252811704
 -0.41654187734719 1.96410561192515
 -0.416305376728039 1.31146664742121
 -0.416057607385919 1.88943261293829
 -0.41567462244895 1.45208325635815
 -0.415267360224909 1.74289953879594
 -0.415225416955946 1.59666006733294
 -0.374524679380704 1.24296231314634
 -0.374202093603797 1.3811988952828
 -0.373544393206284 1.81631738642587
 -0.373539822737021 1.52384623492213
 -0.373050538711944 1.66983777219894
 -0.333333333333333 1
 -0.333333333333333 1.05
 -0.333333333333333 1.1
 -0.333333333333333 1.175
 -0.333333333333333 2.064
 -0.333277182828746 2.01405579391364
 -0.333060768224891 1.96421060960243
 -0.332446943039901 1.31039320384044
 -0.332207954074638 1.88965231924798
 -0.331426028500707 1.45017794624853
 -0.330939639929747 1.74265640053838
 -0.330896962031307 1.59519698729842
 -0.291718957174188 1.24221887944795
 -0.290014787047549 1.3795629259624
 -0.288937500729773 1.81595797670813
 -0.288493107100339 1.52256890998207
 -0.288115308605104 1.66854955054195
 -0.25 1
 -0.25 1.05
 -0.25 1.1
 -0.25 1.175
 -0.25 2.064
 -0.249858429823811 2.01413640920039
 -0.24938064423383 1.9643793878101
 -0.248874004069366 1.31010497541269
 -0.247852704143974 1.88986504866585
 -0.247626792132768 1.45077638060654
 -0.245881377434362 1.59619135174227
 -0.245671979375888 1.74288553220651
 -0.207084818296982 1.24040857492699
 -0.205417134697887 1.37568930617518
 -0.203636251388575 1.81576256685387
 -0.203567896006163 1.51861278838009
 -0.202539544852306 1.66703910281971
 -0.166666666666667 1
 -0.166666666666667 1.05
 -0.166666666666667 1.1
 -0.166666666666667 1.175
 -0.166666666666667 2.064
 -0.166284181063411 2.01430779029466
 -0.16571941475506 1.30649579152937
 -0.165134833908499 1.96453187598556
 -0.162452565382198 1.88991689313337
 -0.16106531618027 1.44650891252008
 -0.159184975689358 1.74113213272659
 -0.159158956183697 1.5927957471696
 -0.125784034760232 1.23861119887671