VARIABLES = "x" "y"
ZONE T="InnerCells" SOLUTIONTIME=0 DATAPACKING=POINT N=15984 E=30925 ZONETYPE=FETRIANGLE
 -5 2.014
 -5 2.044
 -5 2.064
 -5 1.05
 -5 1.02
 -5 1
 -5 1.095
 -5 1.17733333333333
 -5 1.23644444444444
 -5 1.29555555555556
 -5 1.35466666666667
 -5 1.41377777777778
 -5 1.47288888888889
 -5 1.532
 -5 1.59111111111111
 -5 1.65022222222222
 -5 1.70933333333333
 -5 1.76844444444444
 -5 1.82755555555556
 -5 1.88666666666667
 -5 1.969
 -4.95700828389797 1.50322406240634
 -4.95691347393229 1.56162729799218
 -4.95657609673396 1.62055157013939
 -4.95622500650811 1.67897959105911
 -4.95613750408791 1.44396850079823
 -4.95558437937347 1.38711817252094
 -4.95475358908993 1.7375067586624
 -4.95386296309106 1.91640840518536
 -4.95336184498481 1.79614284120848
 -4.95331230361992 1.32787702823982
 -4.95306162917657 1.14678387560769
 -4.94893121359325 1.26855868662155
 -4.94336139151362 1.85805335510933
 -4.93788740202794 1.20639217886631
 -4.93333333333333 2.014
 -4.93333333333333 2.044
 -4.93333333333333 2.064
 -4.93333333333333 1.05
 -4.93333333333333 1.02
 -4.93333333333333 1
 -4.93333333333333 1.969
 -4.93333333333333 1.095
 -4.91360611473141 1.59135125113611
 -4.9132979680152 1.53244672620035
 -4.91327530671003 1.47468213445636
 -4.91278581343627 1.41738568404285
 -4.91275048681755 1.64916856540211
 -4.91134773802968 1.70813011014908
 -4.90919037976853 1.35908610449223
 -4.90887488126967 1.76448380632131
 -4.90758176969301 1.81486718048542
 -4.90581780813282 1.30707766552837
 -4.89976972806756 1.91082732976578
 -4.89770725918936 1.14813773627869
 -4.8951924843854 1.24806173176652
 -4.8808833971327 1.85587210054109
 -4.87172180916097 1.20043995592544
 -4.87004374482248 1.50446774384139
 -4.86998263435605 1.56175073315
 -4.86919119544401 1.61973084570186
 -4.8680353780713 1.44662239265388
 -4.86802149734367 1.67790440453281
 -4.86696339005505 1.39129626832429
 -4.86666666666667 2.014
 -4.86666666666667 2.044
 -4.86666666666667 2.064
 -4.86666666666667 1.05
 -4.86666666666667 1.02
 -4.86666666666667 1
 -4.86666666666667 1.969
 -4.86666666666667 1.095
 -4.86486046019544 1.33712393024114
 -4.86480027325014 1.73528409924177
 -4.86166866527236 1.79717094601965
 -4.85663886981596 1.2849412950681
 -4.84812298186533 1.2446341902035
 -4.83503529206964 1.15216639572591
 -4.83391826731876 1.90458075376856
 -4.83218986494797 1.84403271640073
 -4.82554952021915 1.42044550755088
 -4.82494828949561 1.64775940637061
 -4.82488584027838 1.47559382104262
 -4.82471129656948 1.59174009062509
 -4.82442702848716 1.53356816213362
 -4.82322205471417 1.70433946394619
 -4.82055832568691 1.36553235063587
 -4.81884781628094 1.31530223923732
 -4.81816510944625 1.75884821326529
 -4.81247849816465 1.26584641075312
 -4.80546693854262 1.80781626443689
 -4.80042226846684 1.20631452579257
 -4.8 2.014
 -4.8 2.044
 -4.8 2.064
 -4.8 1.05
 -4.8 1.02
 -4.8 1
 -4.8 1.969
 -4.8 1.095
 -4.78709502967602 1.85892920724012
 -4.77975859647097 1.6190862607143
 -4.7796988382199 1.50572847627072
 -4.77933649047948 1.56144814779776
 -4.77843620005293 1.34248609750831
 -4.77812593773947 1.67582089734075
 -4.77782996535669 1.44950917769325
 -4.77679373069063 1.72748474684643
 -4.77676693125058 1.39312340462753
 -4.77633010651477 1.29702881147317
 -4.77589835420516 1.77245582749692
 -4.76925913959755 1.15126713544751
 -4.76327544069373 1.91260473336055
 -4.76128944969512 1.25720639635251
 -4.7519437574176 1.81173479081072
 -4.73769841679817 1.6469939824575
 -4.7352105198285 1.70081760450324
 -4.73519933044886 1.42191009475334
 -4.73474544271046 1.47561858095599
 -4.7346619782683 1.2035410736009
 -4.73333333333333 2.014
 -4.73333333333333 2.044
 -4.73333333333333 2.064
 -4.73333333333333 1.05
 -4.73333333333333 1.02
 -4.73333333333333 1
 -4.73333333333333 1.969
 -4.73333333333333 1.095
 -4.72947993074941 1.36867667669591
 -4.72890191221559 1.59394324775663
 -4.72824790175055 1.53465722005742
 -4.72762943432356 1.30630861301898
 -4.7256324650066 1.86422556113174
 -4.72388507346499 1.76009352587579
 -4.70002883243021 1.14802993720781
 -4.69863229323818 1.91672769851262
 -4.69858925878233 1.25393775652499
 -4.69850342522813 1.67366599150583
 -4.69479559173629 1.81221123047211
 -4.69394251894249 1.45136274281042
 -4.69112678791371 1.34776578497907
 -4.68737540936602 1.62530624539963
 -4.68559990705674 1.71392385670278
 -4.68336887496217 1.50112973343881
 -4.67587079526306 1.39981998766218
 -4.67281229876662 1.56322651176613
 -4.66754978153148 1.20056750223164
 -4.66666666666667 2.014
 -4.66666666666667 2.044
 -4.66666666666667 2.064
 -4.66666666666667 1.05
 -4.66666666666667 1.02
 -4.66666666666667 1
 -4.66666666666667 1.969
 -4.66666666666667 1.095
 -4.66551004352126 1.30351112108026
 -4.66371178695778 1.8654924455763
 -4.66219524087653 1.76414648281494
 -4.65664682608224 1.66976248245545
 -4.64919269606817 1.45330486558004
 -4.63706485096216 1.35161966223197
 -4.63500991458422 1.25127167002361
 -4.63433922891411 1.1480269411291
 -4.63167021554802 1.91774603802812
 -4.62977450731153 1.62073677871947
 -4.62928064585007 1.81684135683905
 -4.62556166495168 1.7186051545803
 -4.62393171364435 1.51554587705935
 -4.6124639336162 1.40960466062692
 -4.60415172306808 1.56778958037086
 -4.60372970681842 1.30455471383134
 -4.60109299492198 1.2004939953873
 -4.60000820386101 1.66606310474955
 -4.6 2.014
 -4.6 2.044
 -4.6 2.064
 -4.6 1.05
 -4.6 1.02
 -4.6 1
 -4.6 1.969
 -4.6 1.095
 -4.5993121928749 1.86699848704213
 -4.5988250347321 1.76578438161427
 -4.58410799919731 1.46472868733998
 -4.57382631866744 1.35829140307288
 -4.57182381207755 1.61771523979635
 -4.56892055722756 1.25296403530955
 -4.56733379140206 1.14741151688285
 -4.56666664490526 1.71673801663594
 -4.56642901935885 1.91829755642797
 -4.56591058550355 1.81694306211524
 -4.56182680176321 1.522161926959
 -4.54564435795361 1.41400411906854
 -4.54560704037563 1.57316476865971
 -4.53788418447371 1.30636622097504
 -4.53605886457042 1.66598240264693
 -4.53517877264442 1.20053203990512
 -4.53333333333333 2.014
 -4.53333333333333 2.044
 -4.53333333333333 2.064
 -4.53333333333333 1.05
 -4.53333333333333 1.02
 -4.53333333333333 1
 -4.53333333333333 1.969
 -4.53333333333333 1.095
 -4.53299698605985 1.76686732675109
 -4.53282496693666 1.86783623730729
 -4.51824532355277 1.47706546297169
 -4.51113267157265 1.60984288864622
 -4.50823616067358 1.36317012085148
 -4.50321030547877 1.71430198510141
 -4.5031633355384 1.25460583765897
 -4.50072604002941 1.14819671685176
 -4.50068332528063 1.8169596164997
 -4.50000443203411 1.91833206326025
 -4.48963209071463 1.54449607619755
 -4.47688116124447 1.4219835175111
 -4.47221140078356 1.66055788369023
 -4.47096641271886 1.30990329100291
 -4.46806523811058 1.20170846346227
 -4.46803650889687 1.76564550217248
 -4.46693114335218 1.86768353445345
 -4.46666666666667 2.014
 -4.46666666666667 2.044
 -4.46666666666667 2.064
 -4.46666666666667 1.05
 -4.46666666666667 1.02
 -4.46666666666667 1
 -4.46666666666667 1.969
 -4.46666666666667 1.095
 -4.44743106898297 1.48284161953027
 -4.44467727267931 1.60231344780964
 -4.43980669707429 1.36626965814323
 -4.43664553475572 1.71305651403807
 -4.43590141865149 1.25610070564161
 -4.43418954486994 1.8166586060631
 -4.43405842485337 1.14842051392328
 -4.43352525049972 1.91836204615146
 -4.41376668263374 1.54324091184831
 -4.40857631465061 1.42556616136616
 -4.40618012682466 1.65758127411495
 -4.40372783228938 1.31214621789547
 -4.4018305565606 1.76437753656686
 -4.40128529155272 1.20268150121436
 -4.40037438148261 1.86736319951945
 -4.4 2.014
 -4.4 2.044
 -4.4 2.064
 -4.4 1.05
 -4.4 1.02
 -4.4 1
 -4.4 1.969
 -4.4 1.095
 -4.37439933444679 1.48509718239029
 -4.37337185847623 1.60084916873491
 -4.37093096759083 1.36929054016448
 -4.36928986111656 1.71123263749508
 -4.36851248608445 1.25762236784893
 -4.36747524876618 1.816195177534
 -4.36712215442858 1.14889342468509
 -4.36681107712131 1.9183002034222
 -4.3398416830643 1.54294951487609
 -4.33841491569052 1.42700864575239
 -4.33730259313396 1.6562067063137
 -4.33591424067748 1.31356925059356
 -4.33489312955068 1.76377287442673
 -4.33428082785227 1.20337380686464
 -4.3338204197279 1.86711798760899
 -4.33333333333333 2.014
 -4.33333333333333 2.044
 -4.33333333333333 2.064
 -4.33333333333333 1.05
 -4.33333333333333 1.02
 -4.33333333333333 1
 -4.33333333333333 1.969
 -4.33333333333333 1.095
 -4.30488853109153 1.48539804740951
 -4.30436724224155 1.60012779344069
 -4.30294957098205 1.37063024261805
 -4.30200501377931 1.71044056032721
 -4.30123527330872 1.2585961369991
 -4.30057674256806 1.81563795397533
 -4.30032655372422 1.14921805562984
 -4.30010909734071 1.91810156978739
 -4.26996989354456 1.54327080190005
 -4.26937454049255 1.42833862134061
 -4.26884912592707 1.65573135381954
 -4.26815655822142 1.31464303530586
 -4.26761401473192 1.76332934453609
 -4.26723649573557 1.2038804794339
 -4.26693380460613 1.86703038535827
 -4.26666666666667 2.014
 -4.26666666666667 2.044
 -4.26666666666667 2.064
 -4.26666666666667 1.05
 -4.26666666666667 1.02
 -4.26666666666667 1
 -4.26666666666667 1.969
 -4.26666666666667 1.095
 -4.23568884983963 1.48591665143517
 -4.23545265043469 1.59991158578625
 -4.23498490413959 1.37135138868309
 -4.23453038111068 1.70994376779854
 -4.23411735009535 1.25917474268536
 -4.23378812781748 1.81534814031246
 -4.23353682995965 1.1493991705588
 -4.23342846068197 1.91804386181664
 -4.20183289978357 1.54328636194602
 -4.20159221058633 1.42872877680823
 -4.20127152208279 1.65548937762593
 -4.20088158845253 1.31522292811967
 -4.20051878813549 1.76308981683021
 -4.20035579457729 1.20420646095448
 -4.20016864414196 1.86687231966096
 -4.2 2.014
 -4.2 2.044
 -4.2 2.064
 -4.2 1.05
 -4.2 1.02
 -4.2 1
 -4.2 1.969
 -4.2 1.095
 -4.16786689693573 1.48626056685847
 -4.16777669658881 1.59993392642031
 -4.1675128376466 1.37190932875589
 -4.16732442092731 1.70982882495891
 -4.16710582587642 1.25953099726553
 -4.16695393784527 1.81527887307147
 -4.16679559849577 1.14954502115314
 -4.16674511896838 1.9179860965488
 -4.13416463168337 1.54342560705765
 -4.13410061962147 1.42908807660137
 -4.13390354903089 1.65535491547147
 -4.1338091820032 1.31553983173567
 -4.13358353983429 1.76286879220696
 -4.13349739934188 1.20440583756288
 -4.13335483671411 1.86673167421076
 -4.13333333333333 2.014
 -4.13333333333333 2.044
 -4.13333333333333 2.064
 -4.13333333333333 1.05
 -4.13333333333333 1.02
 -4.13333333333333 1
 -4.13333333333333 1.969
 -4.13333333333333 1.095
 -4.10060883830399 1.486432599975
 -4.10054185330922 1.59999022796762
 -4.10045808042298 1.37213967357458
 -4.10031775262489 1.70983694331217
 -4.10023257631796 1.25973419513694
 -4.10011672246173 1.8152836971384
 -4.10006549555485 1.14958233304603
 -4.10002119915392 1.91804367702479
 -4.06707717300828 1.54352021799783
 -4.06703820606179 1.42928148162207
 -4.06698467141296 1.655347545689
 -4.06690934973092 1.31574644629876
 -4.06684068490363 1.76281714141135
 -4.06680398735169 1.20451162346169
 -4.06677772797929 1.86669901021616
 -4.06666666666667 2.014
 -4.06666666666667 2.044
 -4.06666666666667 2.064
 -4.06666666666667 1.05
 -4.06666666666667 1.02
 -4.06666666666667 1
 -4.06666666666667 1.969
 -4.06666666666667 1.095
 -4.03362377431314 1.48656098794955
 -4.03356721190413 1.37230971519398
 -4.03354859722238 1.60000789211275
 -4.03345132624973 1.25985873477726
 -4.03340321910407 1.70975476035927
 -4.033363018019 1.14966228790143
 -4.03331743993544 1.91794889600052
 -4.03331628730984 1.81519043516682
 -4.00019475332768 1.54361456322675
 -4.00017580752643 1.42939400048241
 -4.00016353214697 1.65543949061122
 -4.00012219789507 1.31584006669055
 -4.0001075110438 1.76292831868008
 -4.00003604755932 1.20456089104356
 -4.00000838705134 1.86677811735025
 -4 2.014
 -4 2.044
 -4 2.064
 -4 1.05
 -4 1.02
 -4 1
 -4 1.969
 -4 1.095
 -3.96680663907777 1.48663329989512
 -3.96678472682781 1.37240510295337
 -3.96677766297071 1.60001661405541
 -3.9667333267912 1.25993749332249
 -3.96672402293985 1.70969090590699
 -3.96668590055961 1.14966005625471
 -3.96667939397454 1.81509840227978
 -3.96666411199751 1.91796444479056
 -3.93343113684315 1.42946268810604
 -3.93342226609899 1.54366122331126
 -3.93339370123673 1.31590255489538
 -3.93337761008207 1.20459376110525
 -3.93336652300414 1.6554554318825
 -3.93334640402959 1.8667804967121
 -3.93333333333333 2.014
 -3.93333333333333 2.044
 -3.93333333333333 2.064
 -3.93333333333333 1.05
 -3.93333333333333 1.02
 -3.93333333333333 1
 -3.93333333333333 1.969
 -3.93333333333333 1.095
 -3.93331168291652 1.76292614654957
 -3.90009714130793 1.7097704283907
 -3.90009251423479 1.60007306385363
 -3.90008196286806 1.81518524855854
 -3.90007500689008 1.48668261590321
 -3.90006045984589 1.37244899455656
 -3.90004725133547 1.2599619771501
 -3.90003456442226 1.91794373071449
 -3.90002013274258 1.14969805952564
 -3.86673074737375 1.42950088962806
 -3.86672158794811 1.54366233388343
 -3.86670292964359 1.3159504353285
 -3.86667757877098 1.655386421836
 -3.86666666666667 2.014
 -3.86666666666667 2.044
 -3.86666666666667 2.064
 -3.86666666666667 1.05
 -3.86666666666667 1.02
 -3.86666666666667 1
 -3.86666666666667 1.969
 -3.86666666666667 1.095
 -3.86664904284711 1.20463065279119
 -3.86663951343103 1.76280366254502
 -3.86659153882145 1.86667717668182
 -3.83338903533375 1.60011197400324
 -3.83338696692848 1.48670731772762
 -3.83337671345865 1.70984085882478
 -3.83337112120464 1.37246808509071
 -3.83335250316466 1.81526345331621
 -3.83335157909073 1.25996784791761
 -3.83333735045624 1.14966431407091
 -3.8333362698213 1.91803937784416
 -3.80010089628945 1.86667319000542
 -3.80008221900423 1.76279141344472
 -3.80008031298349 1.65538162433297
 -3.80006162248928 1.54366808245409
 -3.80004871688208 1.20463797845503
 -3.80004451229638 1.4295149837913
 -3.80003497851328 1.31596506050794
 -3.8 2.014
 -3.8 2.044
 -3.8 2.064
 -3.8 1.05
 -3.8 1.02
 -3.8 1
 -3.8 1.969
 -3.8 1.095
 -3.76671227980422 1.48670522890789
 -3.76669693784973 1.37248551580092
 -3.76668753925137 1.60006870018808
 -3.76666849468708 1.25999170311393
 -3.76666224732788 1.1497095278778
 -3.7666460351109 1.91793232004645
 -3.76664076493258 1.70974676352456
 -3.76662263853106 1.81516065292219
 -3.73341465704708 1.76290646423914
 -3.73341234883734 1.65544566416761
 -3.73338873830264 1.5436846567372
 -3.73336717608709 1.42951498558405
 -3.73335826759401 1.31595608224338
 -3.73333720827094 1.86676414760871
 -3.73333333333333 2.014
 -3.73333333333333 2.044
 -3.73333333333333 2.064
 -3.73333333333333 1.05
 -3.73333333333333 1.02
 -3.73333333333333 1
 -3.73333333333333 1.969
 -3.73333333333333 1.095
 -3.7333243820325 1.20462548322326
 -3.70003750073505 1.70965574419416
 -3.70003618955792 1.60002441136606
 -3.70003056825188 1.48669686954016
 -3.70002706760824 1.81505902782532
 -3.70002015065038 1.37249422305019
 -3.70000991282396 1.91795094705035
 -3.70000893126968 1.26000738068242
 -3.70000139653127 1.14968429571916
 -3.66669641503764 1.42951362848197
 -3.66669187665033 1.54367538830095
 -3.66669017790883 1.20462767244132
 -3.66668293851106 1.86674698309579
 -3.66667812231811 1.3159592739229
 -3.66666666666667 2.014
 -3.66666666666667 2.044
 -3.66666666666667 2.064
 -3.66666666666667 1.05
 -3.66666666666667 1.02
 -3.66666666666667 1
 -3.66666666666667 1.969
 -3.66666666666667 1.095
 -3.66666195486073 1.65542855645205
 -3.66663322892006 1.76288195387423
 -3.63340564304248 1.70972101643299
 -3.63340541535399 1.81514429453064
 -3.63337526316612 1.60004844525109
 -3.6333627419652 1.91792790155911
 -3.63334872076905 1.25999741337461
 -3.63334397851427 1.1497122907139
 -3.6333430424425 1.48669877770188
 -3.63333817425462 1.37248947906455
 -3.60001043316058 1.42951708508111
 -3.60000075443449 1.31597501446181
 -3.6 2.014
 -3.6 2.044
 -3.6 2.064
 -3.6 1.05
 -3.6 1.02
 -3.6 1
 -3.6 1.969
 -3.6 1.095
 -3.59999795166025 1.5436531895164
 -3.5999698165735 1.65535095528408
 -3.59996463438695 1.20464632290228
 -3.5999568790847 1.76276113883949
 -3.59992259324311 1.86665207286614
 -3.56666762254919 1.25998662376863
 -3.56666696829614 1.14967052831535
 -3.56666623423762 1.37248657987788
 -3.56666328286748 1.48670590362327
 -3.5666629748831 1.91801925268347
 -3.56665927094398 1.60008024601654
 -3.56665767439205 1.70979048403202
 -3.56665546541987 1.81521531441743
 -3.53340201123265 1.86666208064441
 -3.53336901651487 1.20464860181197
 -3.53336081978097 1.76277100505285
 -3.53334379158637 1.65536167269185
 -3.53333333333333 2.014
 -3.53333333333333 2.044
 -3.53333333333333 2.064
 -3.53333333333333 1.05
 -3.53333333333333 1.02
 -3.53333333333333 1
 -3.53333333333333 1.969
 -3.53333333333333 1.095
 -3.53333100223271 1.31597941229693
 -3.53331908745472 1.54366097069528
 -3.53331536018283 1.4295232378626
 -3.49999840852449 1.37249819889006
 -3.49999077045255 1.14971395072525
 -3.49999023123658 1.48671129886458
 -3.49998741990963 1.26000234914177
 -3.4999669200968 1.91793013148273
 -3.49995202058048 1.60006267058
 -3.49992161314695 1.81514969707951
 -3.49991342343916 1.70973115600876
 -3.46669282777366 1.76290121924869
 -3.46666899165356 1.65544728942973
 -3.46666666666667 2.014
 -3.46666666666667 2.044
 -3.46666666666667 2.064
 -3.46666666666667 1.05
 -3.46666666666667 1.02
 -3.46666666666667 1
 -3.46666666666667 1.969
 -3.46666666666667 1.095
 -3.46665872239031 1.31596965125484
 -3.46664607276194 1.86675497350301
 -3.46664519863961 1.54369460328611
 -3.46664498021274 1.20463199675756
 -3.46664124665067 1.42952998698949
 -3.43333540410258 1.26001784606194
 -3.43333488523929 1.14968770162327
 -3.43333091855394 1.37251095270468
 -3.43332451974403 1.91795845178677
 -3.43332021835241 1.48671861270926
 -3.43330873950163 1.60004969759832
 -3.43330856099729 1.7096839932218
 -3.4333081280467 1.81508107363517
 -3.40001496075111 1.20463551097757
 -3.40000385755739 1.86677067995271
 -3.4 2.014
 -3.4 2.044
 -3.4 2.064
 -3.4 1.05
 -3.4 1.02
 -3.4 1
 -3.4 1.969
 -3.4 1.095
 -3.39999232337004 1.42953845700566
 -3.3999895120588 1.31597491588823
 -3.39997969638441 1.54370727293168
 -3.39995629564725 1.65546211154604
 -3.39994150887779 1.76291130731142
 -3.36673159168732 1.81517253179695
 -3.36671561903337 1.70976298731302
 -3.36669475489279 1.91793725832252
 -3.36668632750554 1.60009168784428
 -3.3666788989801 1.26000647704388
 -3.36667524490025 1.14971448165911
 -3.36666483884878 1.37250912663218
 -3.36666175954461 1.48673173632731
 -3.33334442873792 1.42954439908329
 -3.33333487159808 1.31599130962901
 -3.33333333333333 2.014
 -3.33333333333333 2.044
 -3.33333333333333 2.064
 -3.33333333333333 1.05
 -3.33333333333333 1.02
 -3.33333333333333 1
 -3.33333333333333 1.969
 -3.33333333333333 1.095
 -3.33333278647531 1.54368968723547
 -3.33330344682505 1.65539369719958
 -3.33329974994688 1.20465254211992
 -3.33328527967824 1.76280253719379
 -3.33324868361691 1.86667256816336
 -3.30002754436463 1.70983991659074
 -3.30002195182805 1.6001250450356
 -3.30001392325057 1.48673692974501
 -3.30001193706691 1.81525811307164
 -3.30000701134442 1.37250411624516
 -3.30000493002914 1.91803806463618
 -3.30000385135307 1.25999550812977
 -3.30000188041532 1.14967395525548
 -3.26676462716874 1.86666956226797
 -3.26673681173446 1.76278398363522
 -3.26672637421731 1.65538383507375
 -3.26670697786903 1.20465409635081
 -3.26670162747042 1.54368499915537
 -3.26668548350451 1.42954227836764
 -3.26668332524804 1.31599125293048
 -3.26666666666667 2.014
 -3.26666666666667 2.044
 -3.26666666666667 2.064
 -3.26666666666667 1.05
 -3.26666666666667 1.02
 -3.26666666666667 1
 -3.26666666666667 1.969
 -3.26666666666667 1.095
 -3.23336049752892 1.48672417698232
 -3.23334889360476 1.37250707197031
 -3.23333896631363 1.6000784545297
 -3.23332655202471 1.26000657664168
 -3.23332500587463 1.14971427006083
 -3.23330952858831 1.91793239968394
 -3.23329740662799 1.70975044692345
 -3.2332886898936 1.81516262842302
 -3.20008376883603 1.76290536427631
 -3.20007453740514 1.65544834630333
 -3.20004520563962 1.54369581599077
 -3.20002462795021 1.4295333067965
 -3.20002067410282 1.31597478498543
 -3.20000633166864 1.86676064751055
 -3.2 2.014
 -3.2 2.044
 -3.2 2.064
 -3.2 1.05
 -3.2 1.02
 -3.2 1
 -3.2 1.969
 -3.2 1.095
 -3.19999076416669 1.20463609344575
 -3.16670504026589 1.70965166653223
 -3.16670014609214 1.60002875231837
 -3.16669195030518 1.81505252237251
 -3.16669085872624 1.48670896236003
 -3.16667985384832 1.91794824079072
 -3.16667901294026 1.37250961530736
 -3.1666709093664 1.26001988270775
 -3.16666800533975 1.14968961794287
 -3.13335966872313 1.42952552922469
 -3.13335531083006 1.54368219525081
 -3.13335492659724 1.20463481954249
 -3.13334979068853 1.86674750717759
 -3.13334254646132 1.31597066498022
 -3.13333333333333 2.014
 -3.13333333333333 2.044
 -3.13333333333333 2.064
 -3.13333333333333 1.05
 -3.13333333333333 1.02
 -3.13333333333333 1
 -3.13333333333333 1.969
 -3.13333333333333 1.095
 -3.1333263152227 1.6554298295465
 -3.13329903532036 1.76288084494383
 -3.10008004275768 1.81514169360048
 -3.10007822380149 1.70971823198147
 -3.10004448927618 1.60004886152762
 -3.10002812926431 1.91792774201488
 -3.10001354139639 1.26000715182121
 -3.10000872294038 1.48670556264763
 -3.10000854591325 1.14971508970037
 -3.10000333110907 1.37250053649568
 -3.06667402342772 1.42952351682244
 -3.06666666666667 2.014
 -3.06666666666667 2.044
 -3.06666666666667 2.064
 -3.06666666666667 1.05
 -3.06666666666667 1.02
 -3.06666666666667 1
 -3.06666666666667 1.969
 -3.06666666666667 1.095
 -3.06666534141706 1.54365422782841
 -3.06666439931252 1.31598297672507
 -3.06664171166338 1.65534482858962
 -3.06663215828877 1.20465081214158
 -3.06663025026636 1.76275121824813
 -3.06659571285368 1.86664395065441
 -3.03333425878095 1.14967511988126
 -3.03333339494669 1.91801421624239
 -3.03333235511096 1.25999388551466
 -3.03332867855625 1.37249274824584
 -3.03332538198407 1.48670708006853
 -3.0333220232098 1.70978232691325
 -3.03332169440189 1.60007528009858
 -3.03331990780228 1.81520771546493
 -3.00006630300003 1.86665948806675
 -3.00003087577034 1.76276338693187
 -3.0000269335285 1.20465142501195
 -3.0000112629561 1.6553526871654
 -3 2.014
 -3 2.044
 -3 2.064
 -3 1.05
 -3 1.02
 -3 1
 -3 1.969
 -3 1.095
 -2.99998756253496 1.31598247296982
 -2.99997951019715 1.54365501599544
 -2.99997148887919 1.42952308943558
 -2.96665486114923 1.14971235415824
 -2.96664935933739 1.37249577432526
 -2.96664602545472 1.26000191049286
 -2.96663793580931 1.48670418109168
 -2.96663276123564 1.91792785107322
 -2.96660534022451 1.60005018643286
 -2.96659283071297 1.81513608453622
 -2.96657558433901 1.70971461628576
 -2.93334304694508 1.76288664015815
 -2.93333333333333 2.014
 -2.93333333333333 2.044
 -2.93333333333333 2.064
 -2.93333333333333 1.05
 -2.93333333333333 1.02
 -2.93333333333333 1
 -2.93333333333333 1.969
 -2.93333333333333 1.095
 -2.93331204144873 1.86674401580923
 -2.93330732333995 1.65543034188948
 -2.93330354624777 1.20463263766671
 -2.93330175320489 1.31596614085069
 -2.93327702528814 1.54367961213241
 -2.93327448657711 1.42951984127679
 -2.89999086869369 1.1496855421673
 -2.89998824732495 1.91795300332287
 -2.89996934607443 1.26000723467761
 -2.89995572286094 1.8150744199206
 -2.89994605357 1.37249455818778
 -2.89994433276813 1.70967125146971
 -2.89992813255986 1.48669873472245
 -2.89992534914771 1.60003044148436
 -2.86666666666667 2.014
 -2.86666666666667 2.044
 -2.86666666666667 2.064
 -2.86666666666667 1.05
 -2.86666666666667 1.02
 -2.86666666666667 1
 -2.86666666666667 1.969
 -2.86666666666667 1.095
 -2.86665224654679 1.2046210973071
 -2.86664896709126 1.86676551158757
 -2.86659762752982 1.31594990879498
 -2.86657202188457 1.4295089227139
 -2.86656787415217 1.76289643682489
 -2.8665530529439 1.54368056301558
 -2.86655112125769 1.65544217540875
 -2.83334813835971 1.81516805693669
 -2.83334329417647 1.91794035704035
 -2.83332064876389 1.1497026497118
 -2.83328291722618 1.709749366748
 -2.8332774591891 1.25997651112232
 -2.83321894900299 1.60006513780745
 -2.83321604377164 1.37246687019364
 -2.83318560457706 1.48669151736375
 -2.8 2.014
 -2.8 2.044
 -2.8 2.064
 -2.8 1.05
 -2.8 1.02
 -2.8 1
 -2.8 1.969
 -2.8 1.095
 -2.79990406950169 1.20461617590298
 -2.79987426618031 1.8666817856187
 -2.79986565318678 1.31593021266844
 -2.79984327349456 1.76281408132382
 -2.79981863779199 1.42948187583529
 -2.79979784569712 1.65538253188491
 -2.79979299968448 1.5436484197085
 -2.76664200132608 1.9180428724945
 -2.76662481060768 1.1496464982104
 -2.76656715400555 1.81527936090973
 -2.76653314914879 1.25991900859689
 -2.76650014736478 1.70985174863345
 -2.76644243747588 1.37240962865788
 -2.76641609723333 1.60009787827085
 -2.76639298831124 1.48666430562895
 -2.73333333333333 2.014
 -2.73333333333333 2.044
 -2.73333333333333 2.064
 -2.73333333333333 1.05
 -2.73333333333333 1.02
 -2.73333333333333 1
 -2.73333333333333 1.969
 -2.73333333333333 1.095
 -2.73332182993822 1.86670838402692
 -2.73324923238612 1.20457360579975
 -2.73318510506552 1.76282770052561
 -2.73309841915928 1.31586315124735
 -2.73306378574297 1.65539422620712
 -2.73299371072959 1.4294221696334
 -2.7329770988729 1.54362485618482
 -2.69991518107138 1.14965326095421
 -2.69990773311331 1.91797606801116
 -2.6997576166903 1.81524908376043
 -2.69975394787404 1.25985188311081
 -2.69961320425866 1.37232663165889
 -2.69959961913358 1.70981938013813
 -2.6995298679506 1.48660252746585
 -2.69952803053431 1.60006364899451
 -2.66666666666667 2.014
 -2.66666666666667 2.044
 -2.66666666666667 2.064
 -2.66666666666667 1.05
 -2.66666666666667 1.02
 -2.66666666666667 1
 -2.66666666666667 1.969
 -2.66666666666667 1.095
 -2.66652011019438 1.86685613053416
 -2.6664596804375 1.20448307789774
 -2.66640916647882 1.7630365616382
 -2.66628256594142 1.3157349543281
 -2.66621424106587 1.65550835070566
 -2.6661161015024 1.42932201248008
 -2.66608927453328 1.54361400546901
 -2.63326158878466 1.91801019158816
 -2.63321655715617 1.14958164916257
 -2.63303647143848 1.81522744558408
 -2.63296315692912 1.25974158166949
 -2.63283094874631 1.70981287887958
 -2.63273741579785 1.3721961429575
 -2.63263957477212 1.60003791911276
 -2.63260518305387 1.48651504636542
 -2.6 2.014
 -2.6 2.044
 -2.6 2.064
 -2.6 1.05
 -2.6 1.02
 -2.6 1
 -2.6 1.969
 -2.6 1.095
 -2.59977815893993 1.86693531750928
 -2.59975372052251 1.20436778056617
 -2.59946626945779 1.76313976636318
 -2.59944229832404 1.31556141943254
 -2.59925776519941 1.65557663013331
 -2.59923055632704 1.42918537741367
 -2.59916184098124 1.5435742880595
 -2.56654256351811 1.91808035564784
 -2.56650891413021 1.14954018413858
 -2.56636982078883 1.81546058214919
 -2.56621343431708 1.25956592477001
 -2.56605782485638 1.71001385167379
 -2.56589303075129 1.37199998377892
 -2.56579766259433 1.60009902861373
 -2.56571365618926 1.48641842242144
 -2.53333333333333 2.014
 -2.53333333333333 2.044
 -2.53333333333333 2.064
 -2.53333333333333 1.05
 -2.53333333333333 1.02
 -2.53333333333333 1
 -2.53333333333333 1.969
 -2.53333333333333 1.095
 -2.53298082971669 1.86694587637159
 -2.53292317490694 1.20424083389984
 -2.5326964689721 1.76316985406846
 -2.53262770420667 1.3153769727016
 -2.53240596065383 1.65559485431482
 -2.53237681101469 1.42901370111229
 -2.53228012429243 1.54351498022389
 -2.49992536479508 1.91818238715252
 -2.49987667328874 1.1494103228384
 -2.49955545877167 1.81569467094074
 -2.49948613452111 1.25931640645796
 -2.49925775588696 1.71024313413142
 -2.49913677979564 1.37178160271677
 -2.49901954463765 1.6001694313998
 -2.4989733384213 1.48630700741755
 -2.46666666666667 2.014
 -2.46666666666667 2.044
 -2.46666666666667 2.064
 -2.46666666666667 1.05
 -2.46666666666667 1.02
 -2.46666666666667 1
 -2.46666666666667 1.969
 -2.46666666666667 1.095
 -2.46647108722934 1.86709086481212
 -2.46639510591527 1.20411451472565
 -2.46615314431016 1.76337759702985
 -2.46599935390405 1.31511376045769
 -2.46580668271105 1.65573363153783
 -2.46566121266157 1.42882475094675
 -2.46559211406603 1.54348624833487
 -2.43306943313528 1.91822871625872
 -2.43305101938627 1.14936639142853
 -2.43283402590516 1.81574084154237
 -2.43275485050744 1.25918921011824
 -2.432564472309 1.71030043479264
 -2.43256269452387 1.37156930064036
 -2.43240086720244 1.60017818006349
 -2.43239662552304 1.48618346810337
 -2.4 2.014
 -2.4 2.044
 -2.4 2.064
 -2.4 1.05
 -2.4 1.02
 -2.4 1
 -2.4 1.969
 -2.4 1.095
 -2.39984642903499 1.86731382265605
 -2.39973158789671 1.20383400410459
 -2.39957203951594 1.76366665112089
 -2.39938861913407 1.31488445173187
 -2.39932453159993 1.65590387993938
 -2.39918598167828 1.42866098869941
 -2.39916320720741 1.54346741655315
 -2.3667397396361 1.91820053417285
 -2.36671288228477 1.14933610320261
 -2.36653319300407 1.81585525175608
 -2.3664944163232 1.2589665993003
 -2.36629243802103 1.71042326880718
 -2.36616762784584 1.37135513745045
 -2.36607198660466 1.60021237751772
 -2.36602403788283 1.48607877182055
 -2.33333333333333 2.014
 -2.33333333333333 2.044
 -2.33333333333333 2.064
 -2.33333333333333 1.05
 -2.33333333333333 1.02
 -2.33333333333333 1
 -2.33333333333333 1.969
 -2.33333333333333 1.095
 -2.3330227635668 1.86729604905689
 -2.33299576677542 1.76365227284648
 -2.33298437858239 1.20392631301142
 -2.33297425728631 1.31480072687633
 -2.33292839591891 1.65590222490223
 -2.33292221416886 1.42854974381181
 -2.33289728801487 1.54341919871191
 -2.30002726207821 1.81605489598009
 -2.29998302804822 1.71059157646508
 -2.29995335103118 1.9184005096998
 -2.29991452566558 1.60026165606747
 -2.29990613346658 1.14911638555433
 -2.29985202586469 1.25876672868296
 -2.29984024851347 1.48601204096692
 -2.29983874068228 1.37121685722533
 -2.26695877875795 1.2038256532006
 -2.2669439162071 1.86723204518085
 -2.26682496494021 1.7635993156223
 -2.26681947217002 1.31473849250697
 -2.26677575668349 1.65585290328524
 -2.2667666120305 1.42850054925945
 -2.26675765906624 1.54338108687873
 -2.26666666666667 2.014
 -2.26666666666667 2.044
 -2.26666666666667 2.064
 -2.26666666666667 1.05
 -2.26666666666667 1.02
 -2.26666666666667 1
 -2.26666666666667 1.969
 -2.26666666666667 1.095
 -2.23368129984627 1.60020931961774
 -2.2336755353487 1.48599137270215