VARIABLES = "x" "y" "z"
ZONE T="InnerCells" SOLUTIONTIME=0 DATAPACKING=POINT N=726 E=3000 ZONETYPE=FETETRAHEDRON
 0 0 0
 0 0 4
 0 0 8
 0 0 12
 0 0 16
 0 0 20
 0 0.03981071705535 0
 0 0.03981071705535 4
 0 0.03981071705535 8
 0 0.03981071705535 12
 0 0.03981071705535 16
 0 0.03981071705535 20
 0 0.1050611121762 0
 0 0.1050611121762 4
 0 0.1050611121762 8
 0 0.1050611121762 12
 0 0.1050611121762 16
 0 0.1050611121762 20
 0 0.1853402551702 0
 0 0.1853402551702 4
 0 0.1853402551702 8
 0 0.1853402551702 12
 0 0.1853402551702 16
 0 0.1853402551702 20
 0 0.2772579372621 0
 0 0.2772579372621 4
 0 0.2772579372621 8
 0 0.2772579372621 12
 0 0.2772579372621 16
 0 0.2772579372621 20
 0 0.3789291416276 0
 0 0.3789291416276 4
 0 0.3789291416276 8
 0 0.3789291416276 12
 0 0.3789291416276 16
 0 0.3789291416276 20
 0 0.4891158657636 0
 0 0.4891158657636 4
 0 0.4891158657636 8
 0 0.4891158657636 12
 0 0.4891158657636 16
 0 0.4891158657636 20
 0 0.6069281150668 0
 0 0.6069281150668 4
 0 0.6069281150668 8
 0 0.6069281150668 12
 0 0.6069281150668 16
 0 0.6069281150668 20
 0 0.7316880830837 0
 0 0.7316880830837 4
 0 0.7316880830837 8
 0 0.7316880830837 12
 0 0.7316880830837 16
 0 0.7316880830837 20
 0 0.8628583639628 0
 0 0.8628583639628 4
 0 0.8628583639628 8
 0 0.8628583639628 12
 0 0.8628583639628 16
 0 0.8628583639628 20
 0 1 0
 0 1 4
 0 1 8
 0 1 12
 0 1 16
 0 1 20
 0.3981071705535 0 0
 0.3981071705535 0 4
 0.3981071705535 0 8
 0.3981071705535 0 12
 0.3981071705535 0 16
 0.3981071705535 0 20
 0.3981071705535 0.03981071705535 0
 0.3981071705535 0.03981071705535 4
 0.3981071705535 0.03981071705535 8
 0.3981071705535 0.03981071705535 12
 0.3981071705535 0.03981071705535 16
 0.3981071705535 0.03981071705535 20
 0.3981071705535 0.1050611121762 0
 0.3981071705535 0.1050611121762 4
 0.3981071705535 0.1050611121762 8
 0.3981071705535 0.1050611121762 12
 0.3981071705535 0.1050611121762 16
 0.3981071705535 0.1050611121762 20
 0.3981071705535 0.1853402551702 0
 0.3981071705535 0.1853402551702 4
 0.3981071705535 0.1853402551702 8
 0.3981071705535 0.1853402551702 12
 0.3981071705535 0.1853402551702 16
 0.3981071705535 0.1853402551702 20
 0.3981071705535 0.2772579372621 0
 0.3981071705535 0.2772579372621 4
 0.3981071705535 0.2772579372621 8
 0.3981071705535 0.2772579372621 12
 0.3981071705535 0.2772579372621 16
 0.3981071705535 0.2772579372621 20
 0.3981071705535 0.3789291416276 0
 0.3981071705535 0.3789291416276 4
 0.3981071705535 0.3789291416276 8
 0.3981071705535 0.3789291416276 12
 0.3981071705535 0.3789291416276 16
 0.3981071705535 0.3789291416276 20
 0.3981071705535 0.4891158657636 0
 0.3981071705535 0.4891158657636 4
 0.3981071705535 0.4891158657636 8
 0.3981071705535 0.4891158657636 12
 0.3981071705535 0.4891158657636 16
 0.3981071705535 0.4891158657636 20
 0.3981071705535 0.6069281150668 0
 0.3981071705535 0.6069281150668 4
 0.3981071705535 0.6069281150668 8
 0.3981071705535 0.6069281150668 12
 0.3981071705535 0.6069281150668 16
 0.3981071705535 0.6069281150668 20
 0.3981071705535 0.7316880830837 0
 0.3981071705535 0.7316880830837 4
 0.3981071705535 0.7316880830837 8
 0.3981071705535 0.7316880830837 12
 0.3981071705535 0.7316880830837 16
 0.3981071705535 0.7316880830837 20
 0.3981071705535 0.8628583639628 0
 0.3981071705535 0.8628583639628 4
 0.3981071705535 0.8628583639628 8
 0.3981071705535 0.8628583639628 12
 0.3981071705535 0.8628583639628 16
 0.3981071705535 0.8628583639628 20
 0.3981071705535 1 0
 0.3981071705535 1 4
 0.3981071705535 1 8
 0.3981071705535 1 12
 0.3981071705535 1 16
 0.3981071705535 1 20
 1.050611121762 0 0
 1.050611121762 0 4
 1.050611121762 0 8
 1.050611121762 0 12
 1.050611121762 0 16
 1.050611121762 0 20
 1.050611121762 0.03981071705535 0
 1.050611121762 0.03981071705535 4
 1.050611121762 0.03981071705535 8
 1.050611121762 0.03981071705535 12
 1.050611121762 0.03981071705535 16
 1.050611121762 0.03981071705535 20
 1.050611121762 0.1050611121762 0
 1.050611121762 0.1050611121762 4
 1.050611121762 0.1050611121762 8
 1.050611121762 0.1050611121762 12
 1.050611121762 0.1050611121762 16
 1.050611121762 0.1050611121762 20
 1.050611121762 0.1853402551702 0
 1.050611121762 0.1853402551702 4
 1.050611121762 0.1853402551702 8
 1.050611121762 0.1853402551702 12
 1.050611121762 0.1853402551702 16
 1.050611121762 0.1853402551702 20
 1.050611121762 0.2772579372621 0
 1.050611121762 0.2772579372621 4
 1.050611121762 0.2772579372621 8
 1.050611121762 0.2772579372621 12
 1.050611121762 0.2772579372621 16
 1.050611121762 0.2772579372621 20
 1.050611121762 0.3789291416276 0
 1.050611121762 0.3789291416276 4
 1.050611121762 0.3789291416276 8
 1.050611121762 0.3789291416276 12
 1.050611121762 0.3789291416276 16
 1.050611121762 0.3789291416276 20
 1.050611121762 0.4891158657636 0
 1.050611121762 0.4891158657636 4
 1.050611121762 0.4891158657636 8
 1.050611121762 0.4891158657636 12
 1.050611121762 0.4891158657636 16
 1.050611121762 0.4891158657636 20
 1.050611121762 0.6069281150668 0
 1.050611121762 0.6069281150668 4
 1.050611121762 0.6069281150668 8
 1.050611121762 0.6069281150668 12
 1.050611121762 0.6069281150668 16
 1.050611121762 0.6069281150668 20
 1.050611121762 0.7316880830837 0
 1.050611121762 0.7316880830837 4
 1.050611121762 0.7316880830837 8
 1.050611121762 0.7316880830837 12
 1.050611121762 0.7316880830837 16
 1.050611121762 0.7316880830837 20
 1.050611121762 0.8628583639628 0
 1.050611121762 0.8628583639628 4
 1.050611121762 0.8628583639628 8
 1.050611121762 0.8628583639628 12
 1.050611121762 0.8628583639628 16
 1.050611121762 0.8628583639628 20
 1.050611121762 1 0
 1.050611121762 1 4
 1.050611121762 1 8
 1.050611121762 1 12
 1.050611121762 1 16
 1.050611121762 1 20
 1.853402551702 0 0
 1.853402551702 0 4
 1.853402551702 0 8
 1.853402551702 0 12
 1.853402551702 0 16
 1.853402551702 0 20
 1.853402551702 0.03981071705535 0
 1.853402551702 0.03981071705535 4
 1.853402551702 0.03981071705535 8
 1.853402551702 0.03981071705535 12
 1.853402551702 0.03981071705535 16
 1.853402551702 0.03981071705535 20
 1.853402551702 0.1050611121762 0
 1.853402551702 0.1050611121762 4
 1.853402551702 0.1050611121762 8
 1.853402551702 0.1050611121762 12
 1.853402551702 0.1050611121762 16
 1.853402551702 0.1050611121762 20
 1.853402551702 0.1853402551702 0
 1.853402551702 0.1853402551702 4
 1.853402551702 0.1853402551702 8
 1.853402551702 0.1853402551702 12
 1.853402551702 0.1853402551702 16
 1.853402551702 0.1853402551702 20
 1.853402551702 0.2772579372621 0
 1.853402551702 0.2772579372621 4
 1.853402551702 0.2772579372621 8
 1.853402551702 0.2772579372621 12
 1.853402551702 0.2772579372621 16
 1.853402551702 0.2772579372621 20
 1.853402551702 0.3789291416276 0
 1.853402551702 0.3789291416276 4
 1.853402551702 0.3789291416276 8
 1.853402551702 0.3789291416276 12
 1.853402551702 0.3789291416276 16
 1.853402551702 0.3789291416276 20
 1.853402551702 0.4891158657636 0
 1.853402551702 0.4891158657636 4
 1.853402551702 0.4891158657636 8
 1.853402551702 0.4891158657636 12
 1.853402551702 0.4891158657636 16
 1.853402551702 0.4891158657636 20
 1.853402551702 0.6069281150668 0
 1.853402551702 0.6069281150668 4
 1.853402551702 0.6069281150668 8
 1.853402551702 0.6069281150668 12
 1.853402551702 0.6069281150668 16
 1.853402551702 0.6069281150668 20
 1.853402551702 0.7316880830837 0
 1.853402551702 0.7316880830837 4
 1.853402551702 0.7316880830837 8
 1.853402551702 0.7316880830837 12
 1.853402551702 0.7316880830837 16
 1.853402551702 0.7316880830837 20
 1.853402551702 0.8628583639628 0
 1.853402551702 0.8628583639628 4
 1.853402551702 0.8628583639628 8
 1.853402551702 0.8628583639628 12
 1.853402551702 0.8628583639628 16
 1.853402551702 0.8628583639628 20
 1.853402551702 1 0
 1.853402551702 1 4
 1.853402551702 1 8
 1.853402551702 1 12
 1.853402551702 1 16
 1.853402551702 1 20
 2.772579372621 0 0
 2.772579372621 0 4
 2.772579372621 0 8
 2.772579372621 0 12
 2.772579372621 0 16
 2.772579372621 0 20
 2.772579372621 0.03981071705535 0
 2.772579372621 0.03981071705535 4
 2.772579372621 0.03981071705535 8
 2.772579372621 0.03981071705535 12
 2.772579372621 0.03981071705535 16
 2.772579372621 0.03981071705535 20
 2.772579372621 0.1050611121762 0
 2.772579372621 0.1050611121762 4
 2.772579372621 0.1050611121762 8
 2.772579372621 0.1050611121762 12
 2.772579372621 0.1050611121762 16
 2.772579372621 0.1050611121762 20
 2.772579372621 0.1853402551702 0
 2.772579372621 0.1853402551702 4
 2.772579372621 0.1853402551702 8
 2.772579372621 0.1853402551702 12
 2.772579372621 0.1853402551702 16
 2.772579372621 0.1853402551702 20
 2.772579372621 0.2772579372621 0
 2.772579372621 0.2772579372621 4
 2.772579372621 0.2772579372621 8
 2.772579372621 0.2772579372621 12
 2.772579372621 0.2772579372621 16
 2.772579372621 0.2772579372621 20
 2.772579372621 0.3789291416276 0
 2.772579372621 0.3789291416276 4
 2.772579372621 0.3789291416276 8
 2.772579372621 0.3789291416276 12
 2.772579372621 0.3789291416276 16
 2.772579372621 0.3789291416276 20
 2.772579372621 0.4891158657636 0
 2.772579372621 0.4891158657636 4
 2.772579372621 0.4891158657636 8
 2.772579372621 0.4891158657636 12
 2.772579372621 0.4891158657636 16
 2.772579372621 0.4891158657636 20
 2.772579372621 0.6069281150668 0
 2.772579372621 0.6069281150668 4
 2.772579372621 0.6069281150668 8
 2.772579372621 0.6069281150668 12
 2.772579372621 0.6069281150668 16
 2.772579372621 0.6069281150668 20
 2.772579372621 0.7316880830837 0
 2.772579372621 0.7316880830837 4
 2.772579372621 0.7316880830837 8
 2.772579372621 0.7316880830837 12
 2.772579372621 0.7316880830837 16
 2.772579372621 0.7316880830837 20
 2.772579372621 0.8628583639628 0
 2.772579372621 0.8628583639628 4
 2.772579372621 0.8628583639628 8
 2.772579372621 0.8628583639628 12
 2.772579372621 0.8628583639628 16
 2.772579372621 0.8628583639628 20
 2.772579372621 1 0
 2.772579372621 1 4
 2.772579372621 1 8
 2.772579372621 1 12
 2.772579372621 1 16
 2.772579372621 1 20
 3.789291416276 0 0
 3.789291416276 0 4
 3.789291416276 0 8
 3.789291416276 0 12
 3.789291416276 0 16
 3.789291416276 0 20
 3.789291416276 0.03981071705535 0
 3.789291416276 0.03981071705535 4
 3.789291416276 0.03981071705535 8
 3.789291416276 0.03981071705535 12
 3.789291416276 0.03981071705535 16
 3.789291416276 0.03981071705535 20
 3.789291416276 0.1050611121762 0
 3.789291416276 0.1050611121762 4
 3.789291416276 0.1050611121762 8
 3.789291416276 0.1050611121762 12
 3.789291416276 0.1050611121762 16
 3.789291416276 0.1050611121762 20
 3.789291416276 0.1853402551702 0
 3.789291416276 0.1853402551702 4
 3.789291416276 0.1853402551702 8
 3.789291416276 0.1853402551702 12
 3.789291416276 0.1853402551702 16
 3.789291416276 0.1853402551702 20
 3.789291416276 0.2772579372621 0
 3.789291416276 0.2772579372621 4
 3.789291416276 0.2772579372621 8
 3.789291416276 0.2772579372621 12
 3.789291416276 0.2772579372621 16
 3.789291416276 0.2772579372621 20
 3.789291416276 0.3789291416276 0
 3.789291416276 0.3789291416276 4
 3.789291416276 0.3789291416276 8
 3.789291416276 0.3789291416276 12
 3.789291416276 0.3789291416276 16
 3.789291416276 0.3789291416276 20
 3.789291416276 0.4891158657636 0
 3.789291416276 0.4891158657636 4
 3.789291416276 0.4891158657636 8
 3.789291416276 0.4891158657636 12
 3.789291416276 0.4891158657636 16
 3.789291416276 0.4891158657636 20
 3.789291416276 0.6069281150668 0
 3.789291416276 0.6069281150668 4
 3.789291416276 0.6069281150668 8
 3.789291416276 0.6069281150668 12
 3.789291416276 0.6069281150668 16
 3.789291416276 0.6069281150668 20
 3.789291416276 0.7316880830837 0
 3.789291416276 0.7316880830837 4
 3.789291416276 0.7316880830837 8
 3.789291416276 0.7316880830837 12
 3.789291416276 0.7316880830837 16
 3.789291416276 0.7316880830837 20
 3.789291416276 0.8628583639628 0
 3.789291416276 0.8628583639628 4
 3.789291416276 0.8628583639628 8
 3.789291416276 0.8628583639628 12
 3.789291416276 0.8628583639628 16
 3.789291416276 0.8628583639628 20
 3.789291416276 1 0
 3.789291416276 1 4
 3.789291416276 1 8
 3.789291416276 1 12
 3.789291416276 1 16
 3.789291416276 1 20
 4.891158657636 0 0
 4.891158657636 0 4
 4.891158657636 0 8
 4.891158657636 0 12
 4.891158657636 0 16
 4.891158657636 0 20
 4.891158657636 0.03981071705535 0
 4.891158657636 0.03981071705535 4
 4.891158657636 0.03981071705535 8
 4.891158657636 0.03981071705535 12
 4.891158657636 0.03981071705535 16
 4.891158657636 0.03981071705535 20
 4.891158657636 0.1050611121762 0
 4.891158657636 0.1050611121762 4
 4.891158657636 0.1050611121762 8
 4.891158657636 0.1050611121762 12
 4.891158657636 0.1050611121762 16
 4.891158657636 0.1050611121762 20
 4.891158657636 0.1853402551702 0
 4.891158657636 0.1853402551702 4
 4.891158657636 0.1853402551702 8
 4.891158657636 0.1853402551702 12
 4.891158657636 0.1853402551702 16
 4.891158657636 0.1853402551702 20
 4.891158657636 0.2772579372621 0
 4.891158657636 0.2772579372621 4
 4.891158657636 0.2772579372621 8
 4.891158657636 0.2772579372621 12
 4.891158657636 0.2772579372621 16
 4.891158657636 0.2772579372621 20
 4.891158657636 0.3789291416276 0
 4.891158657636 0.3789291416276 4
 4.891158657636 0.3789291416276 8
 4.891158657636 0.3789291416276 12
 4.891158657636 0.3789291416276 16
 4.891158657636 0.3789291416276 20
 4.891158657636 0.4891158657636 0
 4.891158657636 0.4891158657636 4
 4.891158657636 0.4891158657636 8
 4.891158657636 0.4891158657636 12
 4.891158657636 0.4891158657636 16
 4.891158657636 0.4891158657636 20
 4.891158657636 0.6069281150668 0
 4.891158657636 0.6069281150668 4
 4.891158657636 0.6069281150668 8
 4.891158657636 0.6069281150668 12
 4.891158657636 0.6069281150668 16
 4.891158657636 0.6069281150668 20
 4.891158657636 0.7316880830837 0
 4.891158657636 0.7316880830837 4
 4.891158657636 0.7316880830837 8
 4.891158657636 0.7316880830837 12
 4.891158657636 0.7316880830837 16
 4.891158657636 0.7316880830837 20
 4.891158657636 0.8628583639628 0
 4.891158657636 0.8628583639628 4
 4.891158657636 0.8628583639628 8
 4.891158657636 0.8628583639628 12
 4.891158657636 0.8628583639628 16
 4.891158657636 0.8628583639628 20
 4.891158657636 1 0
 4.891158657636 1 4
 4.891158657636 1 8
 4.891158657636 1 12
 4.891158657636 1 16
 4.891158657636 1 20
 6.069281150668 0 0
 6.069281150668 0 4
 6.069281150668 0 8
 6.069281150668 0 12
 6.069281150668 0 16
 6.069281150668 0 20
 6.069281150668 0.03981071705535 0
 6.069281150668 0.03981071705535 4
 6.069281150668 0.03981071705535 8
 6.069281150668 0.03981071705535 12
 6.069281150668 0.03981071705535 16
 6.069281150668 0.03981071705535 20
 6.069281150668 0.1050611121762 0
 6.069281150668 0.1050611121762 4
 6.069281150668 0.1050611121762 8
 6.069281150668 0.1050611121762 12
 6.069281150668 0.1050611121762 16
 6.069281150668 0.1050611121762 20
 6.069281150668 0.1853402551702 0
 6.069281150668 0.1853402551702 4
 6.069281150668 0.1853402551702 8
 6.069281150668 0.1853402551702 12
 6.069281150668 0.1853402551702 16
 6.069281150668 0.1853402551702 20
 6.069281150668 0.2772579372621 0
 6.069281150668 0.2772579372621 4
 6.069281150668 0.2772579372621 8
 6.069281150668 0.2772579372621 12
 6.069281150668 0.2772579372621 16
 6.069281150668 0.2772579372621 20
 6.069281150668 0.3789291416276 0
 6.069281150668 0.3789291416276 4
 6.069281150668 0.3789291416276 8
 6.069281150668 0.3789291416276 12
 6.069281150668 0.3789291416276 16
 6.069281150668 0.3789291416276 20
 6.069281150668 0.4891158657636 0
 6.069281150668 0.4891158657636 4
 6.069281150668 0.4891158657636 8
 6.069281150668 0.4891158657636 12
 6.069281150668 0.4891158657636 16
 6.069281150668 0.4891158657636 20
 6.069281150668 0.6069281150668 0
 6.069281150668 0.6069281150668 4
 6.069281150668 0.6069281150668 8
 6.069281150668 0.6069281150668 12
 6.069281150668 0.6069281150668 16
 6.069281150668 0.6069281150668 20
 6.069281150668 0.7316880830837 0
 6.069281150668 0.7316880830837 4
 6.069281150668 0.7316880830837 8
 6.069281150668 0.7316880830837 12
 6.069281150668 0.7316880830837 16
 6.069281150668 0.7316880830837 20
 6.069281150668 0.8628583639628 0
 6.069281150668 0.8628583639628 4
 6.069281150668 0.8628583639628 8
 6.069281150668 0.8628583639628 12
 6.069281150668 0.8628583639628 16
 6.069281150668 0.8628583639628 20
 6.069281150668 1 0
 6.069281150668 1 4
 6.069281150668 1 8
 6.069281150668 1 12
 6.069281150668 1 16
 6.069281150668 1 20
 7.316880830837 0 0
 7.316880830837 0 4
 7.316880830837 0 8
 7.316880830837 0 12
 7.316880830837 0 16
 7.316880830837 0 20
 7.316880830837 0.03981071705535 0
 7.316880830837 0.03981071705535 4
 7.316880830837 0.03981071705535 8
 7.316880830837 0.03981071705535 12
 7.316880830837 0.03981071705535 16
 7.316880830837 0.03981071705535 20
 7.316880830837 0.1050611121762 0
 7.316880830837 0.1050611121762 4
 7.316880830837 0.1050611121762 8
 7.316880830837 0.1050611121762 12
 7.316880830837 0.1050611121762 16
 7.316880830837 0.1050611121762 20
 7.316880830837 0.1853402551702 0
 7.316880830837 0.1853402551702 4
 7.316880830837 0.1853402551702 8
 7.316880830837 0.1853402551702 12
 7.316880830837 0.1853402551702 16
 7.316880830837 0.1853402551702 20
 7.316880830837 0.2772579372621 0
 7.316880830837 0.2772579372621 4
 7.316880830837 0.2772579372621 8
 7.316880830837 0.2772579372621 12
 7.316880830837 0.2772579372621 16
 7.316880830837 0.2772579372621 20
 7.316880830837 0.3789291416276 0
 7.316880830837 0.3789291416276 4
 7.316880830837 0.3789291416276 8
 7.316880830837 0.3789291416276 12
 7.316880830837 0.3789291416276 16
 7.316880830837 0.3789291416276 20
 7.316880830837 0.4891158657636 0
 7.316880830837 0.4891158657636 4
 7.316880830837 0.4891158657636 8
 7.316880830837 0.4891158657636 12
 7.316880830837 0.4891158657636 16
 7.316880830837 0.4891158657636 20
 7.316880830837 0.6069281150668 0
 7.316880830837 0.6069281150668 4
 7.316880830837 0.6069281150668 8
 7.316880830837 0.6069281150668 12
 7.316880830837 0.6069281150668 16
 7.316880830837 0.6069281150668 20
 7.316880830837 0.7316880830837 0
 7.316880830837 0.7316880830837 4
 7.316880830837 0.7316880830837 8
 7.316880830837 0.7316880830837 12
 7.316880830837 0.7316880830837 16
 7.316880830837 0.7316880830837 20
 7.316880830837 0.8628583639628 0
 7.316880830837 0.8628583639628 4
 7.316880830837 0.8628583639628 8
 7.316880830837 0.8628583639628 12
 7.316880830837 0.8628583639628 16
 7.316880830837 0.8628583639628 20
 7.316880830837 1 0
 7.316880830837 1 4
 7.316880830837 1 8
 7.316880830837 1 12
 7.316880830837 1 16
 7.316880830837 1 20
 8.628583639628 0 0
 8.628583639628 0 4
 8.628583639628 0 8
 8.628583639628 0 12
 8.628583639628 0 16
 8.628583639628 0 20
 8.628583639628 0.03981071705535 0
 8.628583639628 0.03981071705535 4
 8.628583639628 0.03981071705535 8
 8.628583639628 0.03981071705535 12
 8.628583639628 0.03981071705535 16
 8.628583639628 0.03981071705535 20
 8.628583639628 0.1050611121762 0
 8.628583639628 0.1050611121762 4
 8.628583639628 0.1050611121762 8
 8.628583639628 0.1050611121762 12
 8.628583639628 0.1050611121762 16
 8.628583639628 0.1050611121762 20
 8.628583639628 0.1853402551702 0
 8.628583639628 0.1853402551702 4
 8.628583639628 0.1853402551702 8
 8.628583639628 0.1853402551702 12
 8.628583639628 0.1853402551702 16
 8.628583639628 0.1853402551702 20
 8.628583639628 0.2772579372621 0
 8.628583639628 0.2772579372621 4
 8.628583639628 0.2772579372621 8
 8.628583639628 0.2772579372621 12
 8.628583639628 0.2772579372621 16
 8.628583639628 0.2772579372621 20
 8.628583639628 0.3789291416276 0
 8.628583639628 0.3789291416276 4
 8.628583639628 0.3789291416276 8
 8.628583639628 0.3789291416276 12
 8.628583639628 0.3789291416276 16
 8.628583639628 0.3789291416276 20
 8.628583639628 0.4891158657636 0
 8.628583639628 0.4891158657636 4
 8.628583639628 0.4891158657636 8
 8.628583639628 0.4891158657636 12
 8.628583639628 0.4891158657636 16
 8.628583639628 0.4891158657636 20
 8.628583639628 0.6069281150668 0
 8.628583639628 0.6069281150668 4
 8.628583639628 0.6069281150668 8
 8.628583639628 0.6069281150668 12
 8.628583639628 0.6069281150668 16
 8.628583639628 0.6069281150668 20
 8.628583639628 0.7316880830837 0
 8.628583639628 0.7316880830837 4
 8.628583639628 0.7316880830837 8
 8.628583639628 0.7316880830837 12
 8.628583639628 0.7316880830837 16
 8.628583639628 0.7316880830837 20
 8.628583639628 0.8628583639628 0
 8.628583639628 0.8628583639628 4
 8.628583639628 0.8628583639628 8
 8.628583639628 0.8628583639628 12
 8.628583639628 0.8628583639628 16
 8.628583639628 0.8628583639628 20
 8.628583639628 1 0
 8.628583639628 1 4
 8.628583639628 1 8
 8.628583639628 1 12
 8.628583639628 1 16
 8.628583639628 1 20
 10 0 0
 10 0 4
 10 0 8
 10 0 12
 10 0 16
 10 0 20
 10 0.03981071705535 0
 10 0.03981071705535 4
 10 0.03981071705535 8
 10 0.03981071705535 12
 10 0.03981071705535 16
 10 0.03981071705535 20
 10 0.1050611121762 0
 10 0.1050611121762 4
 10 0.1050611121762 8
 10 0.1050611121762 12
 10 0.1050611121762 16
 10 0.1050611121762 20
 10 0.1853402551702 0
 10 0.1853402551702 4
 10 0.1853402551702 8
 10 0.1853402551702 12
 10 0.1853402551702 16
 10 0.1853402551702 20
 10 0.2772579372621 0
 10 0.2772579372621 4
 10 0.2772579372621 8
 10 0.2772579372621 12
 10 0.2772579372621 16
 10 0.2772579372621 20
 10 0.3789291416276 0
 10 0.3789291416276 4
 10 0.3789291416276 8
 10 0.3789291416276 12
 10 0.3789291416276 16
 10 0.3789291416276 20
 10 0.4891158657636 0
 10 0.4891158657636 4
 10 0.4891158657636 8
 10 0.4891158657636 12
 10 0.4891158657636 16
 10 0.4891158657636 20
 10 0.6069281150668 0
 10 0.6069281150668 4
 10 0.6069281150668 8
 10 0.6069281150668 12
 10 0.6069281150668 16
 10 0.6069281150668 20
 10 0.7316880830837 0
 10 0.7316880830837 4
 10 0.7316880830837 8
 10 0.7316880830837 12
 10 0.7316880830837 16
 10 0.7316880830837 20
 10 0.8628583639628 0
 10 0.8628583639628 4
 10 0.8628583639628 8
 10 0.8628583639628 12
 10 0.8628583639628 16
 10 0.8628583639628 20
 10 1 0
 10 1 4
 10 1 8
 10 1 12
 10 1 16
 10 1 20
 67 8 1 2
 67 8 1 7
 67 8 73 7
 67 8 73 74
 67 8 68 74
 67 8 68 2
 68 9 2 3
 68 9 2 8
 68 9 74 8
 68 9 74 75
 68 9 69 75
 68 9 69 3
 69 10 3 4
 69 10 3 9
 69 10 75 9
 69 10 75 76
 69 10 70 76
 69 10 70 4
 70 11 4 5
 70 11 4 10
 70 11 76 10
 70 11 76 77
 70 11 71 77
 70 11 71 5
 71 12 5 6
 71 12 5 11
 71 12 77 11
 71 12 77 78
 71 12 72 78
 71 12 72 6
 73 14 7 8
 73 14 7 13
 73 14 79 13
 73 14 79 80
 73 14 74 80
 73 14 74 8
 74 15 8 9
 74 15 8 14
 74 15 80 14
 74 15 80 81
 74 15 75 81
 74 15 75 9
 75 16 9 10
 75 16 9 15
 75 16 81 15
 75 16 81 82
 75 16 76 82
 75 16 76 10
 76 17 10 11
 76 17 10 16
 76 17 82 16
 76 17 82 83
 76 17 77 83
 76 17 77 11
 77 18 11 12
 77 18 11 17
 77 18 83 17
 77 18 83 84
 77 18 78 84
 77 18 78 12
 79 20 13 14
 79 20 13 19
 79 20 85 19
 79 20 85 86
 79 20 80 86
 79 20 80 14
 80 21 14 15
 80 21 14 20
 80 21 86 20
 80 21 86 87
 80 21 81 87
 80 21 81 15
 81 22 15 16
 81 22 15 21
 81 22 87 21
 81 22 87 88
 81 22 82 88
 81 22 82 16
 82 23 16 17
 82 23 16 22
 82 23 88 22
 82 23 88 89
 82 23 83 89
 82 23 83 17
 83 24 17 18
 83 24 17 23
 83 24 89 23
 83 24 89 90
 83 24 84 90
 83 24 84 18
 85 26 19 20
 85 26 19 25
 85 26 91 25
 85 26 91 92
 85 26 86 92
 85 26 86 20
 86 27 20 21
 86 27 20 26
 86 27 92 26
 86 27 92 93
 86 27 87 93
 86 27 87 21
 87 28 21 22
 87 28 21 27
 87 28 93 27
 87 28 93 94
 87 28 88 94
 87 28 88 22
 88 29 22 23
 88 29 22 28
 88 29 94 28
 88 29 94 95
 88 29 89 95
 88 29 89 23
 89 30 23 24
 89 30 23 29
 89 30 95 29
 89 30 95 96
 89 30 90 96
 89 30 90 24
 91 32 25 26
 91 32 25 31
 91 32 97 31
 91 32 97 98
 91 32 92 98
 91 32 92 26
 92 33 26 27
 92 33 26 32
 92 33 98 32
 92 33 98 99
 92 33 93 99
 92 33 93 27
 93 34 27 28
 93 34 27 33
 93 34 99 33
 93 34 99 100
 93 34 94 100
 93 34 94 28
 94 35 28 29
 94 35 28 34
 94 35 100 34
 94 35 100 101
 94 35 95 101
 94 35 95 29
 95 36 29 30
 95 36 29 35
 95 36 101 35
 95 36 101 102
 95 36 96 102
 95 36 96 30
 97 38 31 32
 97 38 31 37
 97 38 103 37
 97 38 103 104
 97 38 98 104
 97 38 98 32
 98 39 32 33
 98 39 32 38
 98 39 104 38
 98 39 104 105
 98 39 99 105
 98 39 99 33
 99 40 33 34
 99 40 33 39
 99 40 105 39
 99 40 105 106
 99 40 100 106
 99 40 100 34
 100 41 34 35
 100 41 34 40
 100 41 106 40
 100 41 106 107
 100 41 101 107
 100 41 101 35
 101 42 35 36
 101 42 35 41
 101 42 107 41
 101 42 107 108
 101 42 102 108
 101 42 102 36
 103 44 37 38
 103 44 37 43
 103 44 109 43
 103 44 109 110
 103 44 104 110
 103 44 104 38
 104 45 38 39
 104 45 38 44
 104 45 110 44
 104 45 110 111
 104 45 105 111
 104 45 105 39
 105 46 39 40
 105 46 39 45
 105 46 111 45
 105 46 111 112
 105 46 106 112
 105 46 106 40
 106 47 40 41
 106 47 40 46
 106 47 112 46
 106 47 112 113
 106 47 107 113
 106 47 107 41
 107 48 41 42
 107 48 41 47
 107 48 113 47
 107 48 113 114
 107 48 108 114
 107 48 108 42
 109 50 43 44
 109 50 43 49
 109 50 115 49
 109 50 115 116
 109 50 110 116
 109 50 110 44
 110 51 44 45
 110 51 44 50
 110 51 116 50
 110 51 116 117
 110 51 111 117
 110 51 111 45
 111 52 45 46
 111 52 45 51
 111 52 117 51
 111 52 117 118
 111 52 112 118
 111 52 112 46
 112 53 46 47
 112 53 46 52
 112 53 118 52
 112 53 118 119
 112 53 113 119
 112 53 113 47
 113 54 47 48
 113 54 47 53
 113 54 119 53
 113 54 119 120
 113 54 114 120
 113 54 114 48
 115 56 49 50
 115 56 49 55
 115 56 121 55
 115 56 121 122
 115 56 116 122
 115 56 116 50
 116 57 50 51
 116 57 50 56
 116 57 122 56
 116 57 122 123
 116 57 117 123
 116 57 117 51
 117 58 51 52
 117 58 51 57
 117 58 123 57
 117 58 123 124
 117 58 118 124
 117 58 118 52
 118 59 52 53
 118 59 52 58
 118 59 124 58
 118 59 124 125
 118 59 119 125
 118 59 119 53
 119 60 53 54
 119 60 53 59
 119 60 125 59
 119 60 125 126
 119 60 120 126
 119 60 120 54
 121 62 55 56
 121 62 55 61
 121 62 127 61
 121 62 127 128
 121 62 122 128
 121 62 122 56
 122 63 56 57
 122 63 56 62
 122 63 128 62
 122 63 128 129
 122 63 123 129
 122 63 123 57
 123 64 57 58
 123 64 57 63
 123 64 129 63
 123 64 129 130
 123 64 124 130
 123 64 124 58
 124 65 58 59
 124 65 58 64
 124 65 130 64
 124 65 130 131
 124 65 125 131
 124 65 125 59
 125 66 59 60
 125 66 59 65
 125 66 131 65
 125 66 131 132
 125 66 126 132
 125 66 126 60
 133 74 67 68
 133 74 67 73
 133 74 139 73
 133 74 139 140
 133 74 134 140
 133 74 134 68
 134 75 68 69
 134 75 68 74
 134 75 140 74
 134 75 140 141
 134 75 135 141
 134 75 135 69
 135 76 69 70
 135 76 69 75
 135 76 141 75
 135 76 141 142
 135 76 136 142
 135 76 136 70
 136 77 70 71
 136 77 70 76
 136 77 142 76
 136 77 142 143
 136 77 137 143
 136 77 137 71
 137 78 71 72
 137 78 71 77
 137 78 143 77
 137 78 143 144
 137 78 138 144
 137 78 138 72
 139 80 73 74
 139 80 73 79
 139 80 145 79
 139 80 145 146
 139 80 140 146
 139 80 140 74
 140 81 74 75
 140 81 74 80
 140 81 146 80
 140 81 146 147
 140 81 141 147
 140 81 141 75
 141 82 75 76
 141 82 75 81
 141 82 147 81
 141 82 147 148
 141 82 142 148
 141 82 142 76
 142 83 76 77
 142 83 76 82
 142 83 148 82
 142 83 148 149
 142 83 143 149
 142 83 143 77
 143 84 77 78
 143 84 77 83
 143 84 149 83
 143 84 149 150
 143 84 144 150
 143 84 144 78
 145 86 79 80
 145 86 79 85
 145 86 151 85
 145 86 151 152
 145 86 146 152
 145 86 146 80
 146 87 80 81
 146 87 80 86
 146 87 152 86
 146 87 152 153
 146 87 147 153
 146 87 147 81
 147 88 81 82
 147 88 81 87
 147 88 153 87
 147 88 153 154
 147 88 148 154
 147 88 148 82
 148 89 82 83
 148 89 82 88
 148 89 154 88
 148 89 154 155
 148 89 149 155
 148 89 149 83
 149 90 83 84
 149 90 83 89
 149 90 155 89
 149 90 155 156
 149 90 150 156
 149 90 150 84
 151 92 85 86
 151 92 85 91
 151 92 157 91
 151 92 157 158
 151 92 152 158
 151 92 152 86
 152 93 86 87
 152 93 86 92
 152 93 158 92
 152 93 158 159
 152 93 153 159
 152 93 153 87
 153 94 87 88
 153 94 87 93
 153 94 159 93
 153 94 159 160
 153 94 154 160
 153 94 154 88
 154 95 88 89
 154 95 88 94
 154 95 160 94
 154 95 160 161
 154 95 155 161
 154 95 155 89
 155 96 89 90
 155 96 89 95
 155 96 161 95
 155 96 161 162
 155 96 156 162
 155 96 156 90
 157 98 91 92
 157 98 91 97
 157 98 163 97
 157 98 163 164
 157 98 158 164
 157 98 158 92
 158 99 92 93
 158 99 92 98
 158 99 164 98
 158 99 164 165
 158 99 159 165
 158 99 159 93
 159 100 93 94
 159 100 93 99
 159 100 165 99
 159 100 165 166
 159 100 160 166
 159 100 160 94
 160 101 94 95
 160 101 94 100
 160 101 166 100
 160 101 166 167
 160 101 161 167
 160 101 161 95
 161 102 95 96
 161 102 95 101
 161 102 167 101
 161 102 167 168
 161 102 162 168
 161 102 162 96
 163 104 97 98
 163 104 97 103
 163 104 169 103
 163 104 169 170
 163 104 164 170
 163 104 164 98
 164 105 98 99
 164 105 98 104
 164 105 170 104
 164 105 170 171
 164 105 165 171
 164 105 165 99
 165 106 99 100
 165 106 99 105
 165 106 171 105
 165 106 171 172
 165 106 166 172
 165 106 166 100
 166 107 100 101
 166 107 100 106
 166 107 172 106
 166 107 172 173
 166 107 167 173
 166 107 167 101
 167 108 101 102
 167 108 101 107
 167 108 173 107
 167 108 173 174
 167 108 168 174
 167 108 168 102
 169 110 103 104
 169 110 103 109
 169 110 175 109
 169 110 175 176
 169 110 170 176
 169 110 170 104
 170 111 104 105
 170 111 104 110
 170 111 176 110
 170 111 176 177
 170 111 171 177
 170 111 171 105
 171 112 105 106
 171 112 105 111
 171 112 177 111
 171 112 177 178
 171 112 172 178
 171 112 172 106
 172 113 106 107
 172 113 106 112
 172 113 178 112
 172 113 178 179
 172 113 173 179
 172 113 173 107
 173 114 107 108
 173 114 107 113
 173 114 179 113
 173 114 179 180
 173 114 174 180
 173 114 174 108
 175 116 109 110
 175 116 109 115
 175 116 181 115
 175 116 181 182
 175 116 176 182
 175 116 176 110
 176 117 110 111
 176 117 110 116
 176 117 182 116
 176 117 182 183
 176 117 177 183
 176 117 177 111
 177 118 111 112
 177 118 111 117
 177 118 183 117
 177 118 183 184
 177 118 178 184
 177 118 178 112
 178 119 112 113
 178 119 112 118
 178 119 184 118
 178 119 184 185
 178 119 179 185
 178 119 179 113
 179 120 113 114
 179 120 113 119
 179 120 185 119
 179 120 185 186
 179 120 180 186
 179 120 180 114
 181 122 115 116
 181 122 115 121
 181 122 187 121
 181 122 187 188
 181 122 182 188
 181 122 182 116
 182 123 116 117
 182 123 116 122
 182 123 188 122
 182 123 188 189
 182 123 183 189
 182 123 183 117
 183 124 117 118
 183 124 117 123
 183 124 189 123
 183 124 189 190