VARIABLES = "x" "y" "z"
ZONE T="InnerCells" SOLUTIONTIME=0 DATAPACKING=POINT N=14040 E=74340 ZONETYPE=FETETRAHEDRON
 0.1375736530442 0.8706243903544 0
 0 0.9183981003917 0
 0.1375736530442 0.8706243903544 0.4426509884766
 0 0.9183981003917 0.4426509884766
 0 0.8829389998977 0
 0.1285090765119 0.8154064041047 0
 0.2543465163232 0.7842880580694 0
 0.2720512166086 0.8378562885262 0
 0.1433381068594 0.9060834908484 0
 0 0.9496006471573 0
 0.1375736530442 0.8706243903544 1.089934583049
 0 0.9183981003917 1.089934583049
 0 0.8829389998977 0.4426509884766
 0.1285090765119 0.8154064041047 0.4426509884766
 0.2543465163232 0.7842880580694 0.4426509884766
 0.2720512166086 0.8378562885262 0.4426509884766
 0.1433381068594 0.9060834908484 0.4426509884766
 0 0.9496006471573 0.4426509884766
 0 0.827721013648 0
 0.1139828267236 0.728076472987 0
 0.3739274205066 0.7343904126888 0
 0.2259961094695 0.6995022386479 0
 0.3325778537485 0.6545081879295 0
 0.4842289256906 0.6666544849105 0
 0.3997956741296 0.7847911272488 0
 0.2833280192039 0.8722218514498 0
 0.1483762870697 0.937286037614 0
 0 0.9768647784066 0
 0.1375736530442 0.8706243903544 1.846371421822
 0 0.9183981003917 1.846371421822
 0 0.8829389998977 1.089934583049
 0.1285090765119 0.8154064041047 1.089934583049
 0.2543465163232 0.7842880580694 1.089934583049
 0.2720512166086 0.8378562885262 1.089934583049
 0.1433381068594 0.9060834908484 1.089934583049
 0 0.9496006471573 1.089934583049
 0 0.827721013648 0.4426509884766
 0.1139828267236 0.728076472987 0.4426509884766
 0.2259961094695 0.6995022386479 0.4426509884766
 0.3739274205066 0.7343904126888 0.4426509884766
 0.3325778537485 0.6545081879295 0.4426509884766
 0.4842289256906 0.6666544849105 0.4426509884766
 0.3997956741296 0.7847911272488 0.4426509884766
 0.2833280192039 0.8722218514498 0.4426509884766
 0.1483762870697 0.937286037614 0.4426509884766
 0 0.9768647784066 0.4426509884766
 0 0.7403910825303 0
 0.07222743599575 0.6693660578787 0
 0.1503634658206 0.6389528312663 0
 0.4308840303844 0.5938427166833 0
 0.2424053466161 0.6009264993741 0
 0.3335715672256 0.5498219087911 0
 0.5184791323504 0.5188138411694 0
 0.5932456414323 0.4311597532307 0
 0.5825605624489 0.5826150910328 0
 0.5176520622297 0.7125232710023 0
 0.4163005032923 0.817080790447 0
 0.2931919814251 0.9024182503711 0
 0.152748655266 0.9645501688633 0
 -0 1 0
 0.1375736530442 0.8706243903544 2.683733745664
 0 0.9183981003917 2.683733745664
 0 0.8829389998977 1.846371421822
 0.1285090765119 0.8154064041047 1.846371421822
 0.2543465163232 0.7842880580694 1.846371421822
 0.2720512166086 0.8378562885262 1.846371421822
 0.1433381068594 0.9060834908484 1.846371421822
 0 0.9496006471573 1.846371421822
 0 0.827721013648 1.089934583049
 0.1139828267236 0.728076472987 1.089934583049
 0.2259961094695 0.6995022386479 1.089934583049
 0.3739274205066 0.7343904126888 1.089934583049
 0.3325778537485 0.6545081879295 1.089934583049
 0.4842289256906 0.6666544849105 1.089934583049
 0.3997956741296 0.7847911272488 1.089934583049
 0.2833280192039 0.8722218514498 1.089934583049
 0.1483762870697 0.937286037614 1.089934583049
 0 0.9768647784066 1.089934583049
 0.07222743599575 0.6693660578787 0.4426509884766
 0 0.7403910825303 0.4426509884766
 0.1503634658206 0.6389528312663 0.4426509884766
 0.2424053466161 0.6009264993741 0.4426509884766
 0.4308840303844 0.5938427166833 0.4426509884766
 0.3335715672256 0.5498219087911 0.4426509884766
 0.5184791323504 0.5188138411694 0.4426509884766
 0.5932456414323 0.4311597532307 0.4426509884766
 0.5825605624489 0.5826150910328 0.4426509884766
 0.5176520622297 0.7125232710023 0.4426509884766
 0.4163005032923 0.817080790447 0.4426509884766
 0.2931919814251 0.9024182503711 0.4426509884766
 0.152748655266 0.9645501688633 0.4426509884766
 0 1 0.4426509884766
 0.07873167139404 0.5961983402797 0
 0 0.6666666666667 0
 0.1646024513969 0.5420378847525 0
 0.4112056439849 0.4899446784213 0
 0.250082330445 0.504275651092 0
 0.3252440600672 0.4697169598598 0
 0.476422322522 0.411586661716 0
 0.5423754590275 0.3319469984476 0
 0.653376732596 0.3329714515308 0
 0.66652863517 0.4842784302027 0
 0.6227440828572 0.6227526396701 0
 0.5389988362591 0.7418767901456 0
 0.4307573706056 0.8454183119926 0
 0.3017676236803 0.9287546617718 0
 0.1564339677228 0.9876853904567 0
 0.1375736530442 0.8706243903544 3.586926222535
 0 0.9183981003917 3.586926222535
 0 0.8829389998977 2.683733745664
 0.1285090765119 0.8154064041047 2.683733745664
 0.2543465163232 0.7842880580694 2.683733745664
 0.2720512166086 0.8378562885262 2.683733745664
 0.1433381068594 0.9060834908484 2.683733745664
 0 0.9496006471573 2.683733745664
 0 0.827721013648 1.846371421822
 0.1139828267236 0.728076472987 1.846371421822
 0.2259961094695 0.6995022386479 1.846371421822
 0.3739274205066 0.7343904126888 1.846371421822
 0.3325778537485 0.6545081879295 1.846371421822
 0.4842289256906 0.6666544849105 1.846371421822
 0.3997956741296 0.7847911272488 1.846371421822
 0.2833280192039 0.8722218514498 1.846371421822
 0.1483762870697 0.937286037614 1.846371421822
 0 0.9768647784066 1.846371421822
 0.07222743599575 0.6693660578787 1.089934583049
 0 0.7403910825303 1.089934583049
 0.1503634658206 0.6389528312663 1.089934583049
 0.2424053466161 0.6009264993741 1.089934583049
 0.4308840303844 0.5938427166833 1.089934583049
 0.3335715672256 0.5498219087911 1.089934583049
 0.5184791323504 0.5188138411694 1.089934583049
 0.5932456414323 0.4311597532307 1.089934583049
 0.5825605624489 0.5826150910328 1.089934583049
 0.5176520622297 0.7125232710023 1.089934583049
 0.4163005032923 0.817080790447 1.089934583049
 0.2931919814251 0.9024182503711 1.089934583049
 0.152748655266 0.9645501688633 1.089934583049
 0 1 1.089934583049
 0.07873167139404 0.5961983402797 0.4426509884766
 0 0.6666666666667 0.4426509884766
 0.1646024513969 0.5420378847525 0.4426509884766
 0.250082330445 0.504275651092 0.4426509884766
 0.4112056439849 0.4899446784213 0.4426509884766
 0.3252440600672 0.4697169598598 0.4426509884766
 0.476422322522 0.411586661716 0.4426509884766
 0.5423754590275 0.3319469984476 0.4426509884766
 0.653376732596 0.3329714515308 0.4426509884766
 0.66652863517 0.4842784302027 0.4426509884766
 0.6227440828572 0.6227526396701 0.4426509884766
 0.5389988362591 0.7418767901456 0.4426509884766
 0.4307573706056 0.8454183119926 0.4426509884766
 0.3017676236803 0.9287546617718 0.4426509884766
 0.1564339677228 0.9876853904567 0.4426509884766
 0.08427850986593 0.4961336596198 0
 0 0.5555555555556 0
 0.1753224836187 0.4483208849901 0
 0.5908024814893 0.2435152163897 0
 0.3725193261742 0.394020341889 0
 0.273693549473 0.3981065599042 0
 0.4329303148826 0.3097738336628 0
 0.4938568683689 0.2502508790365 0
 0.6974103993857 0.2266267364537 0
 0.7340788388441 0.3740370205956 0
 0.7124971377067 0.5176612965115 0
 0.6484184672287 0.6484200277526 0
 0.557707783528 0.7676202041986 0
 0.4433419747619 0.8701086787511 0
 0.3090166412276 0.951055534923 0
 0.1375736530442 0.8706243903544 4.546299721872
 0 0.9183981003917 4.546299721872
 0 0.8829389998977 3.586926222535
 0.1285090765119 0.8154064041047 3.586926222535
 0.2543465163232 0.7842880580694 3.586926222535
 0.2720512166086 0.8378562885262 3.586926222535
 0.1433381068594 0.9060834908484 3.586926222535
 0 0.9496006471573 3.586926222535
 0 0.827721013648 2.683733745664
 0.1139828267236 0.728076472987 2.683733745664
 0.2259961094695 0.6995022386479 2.683733745664
 0.3739274205066 0.7343904126888 2.683733745664
 0.3325778537485 0.6545081879295 2.683733745664
 0.4842289256906 0.6666544849105 2.683733745664
 0.3997956741296 0.7847911272488 2.683733745664
 0.2833280192039 0.8722218514498 2.683733745664
 0.1483762870697 0.937286037614 2.683733745664
 0 0.9768647784066 2.683733745664
 0.07222743599575 0.6693660578787 1.846371421822
 0 0.7403910825303 1.846371421822
 0.1503634658206 0.6389528312663 1.846371421822
 0.2424053466161 0.6009264993741 1.846371421822
 0.4308840303844 0.5938427166833 1.846371421822
 0.3335715672256 0.5498219087911 1.846371421822
 0.5184791323504 0.5188138411694 1.846371421822
 0.5932456414323 0.4311597532307 1.846371421822
 0.5825605624489 0.5826150910328 1.846371421822
 0.5176520622297 0.7125232710023 1.846371421822
 0.4163005032923 0.817080790447 1.846371421822
 0.2931919814251 0.9024182503711 1.846371421822
 0.152748655266 0.9645501688633 1.846371421822
 0 1 1.846371421822
 0.07873167139404 0.5961983402797 1.089934583049
 0 0.6666666666667 1.089934583049
 0.1646024513969 0.5420378847525 1.089934583049
 0.250082330445 0.504275651092 1.089934583049
 0.4112056439849 0.4899446784213 1.089934583049
 0.3252440600672 0.4697169598598 1.089934583049
 0.476422322522 0.411586661716 1.089934583049
 0.5423754590275 0.3319469984476 1.089934583049
 0.653376732596 0.3329714515308 1.089934583049
 0.66652863517 0.4842784302027 1.089934583049
 0.6227440828572 0.6227526396701 1.089934583049
 0.5389988362591 0.7418767901456 1.089934583049
 0.4307573706056 0.8454183119926 1.089934583049
 0.3017676236803 0.9287546617718 1.089934583049
 0.1564339677228 0.9876853904567 1.089934583049
 0.08427850986593 0.4961336596198 0.4426509884766
 0 0.5555555555556 0.4426509884766
 0.1753224836187 0.4483208849901 0.4426509884766
 0.5908024814893 0.2435152163897 0.4426509884766
 0.273693549473 0.3981065599042 0.4426509884766
 0.3725193261742 0.394020341889 0.4426509884766
 0.4329303148826 0.3097738336628 0.4426509884766
 0.4938568683689 0.2502508790365 0.4426509884766
 0.6974103993857 0.2266267364537 0.4426509884766
 0.7340788388441 0.3740370205956 0.4426509884766
 0.7124971377067 0.5176612965115 0.4426509884766
 0.6484184672287 0.6484200277526 0.4426509884766
 0.557707783528 0.7676202041986 0.4426509884766
 0.4433419747619 0.8701086787511 0.4426509884766
 0.3090166412276 0.951055534923 0.4426509884766
 0.09234460493266 0.386455912959 0
 0 0.4444444444444 0
 0.1916747288221 0.3385436355079 0
 0.6175142922281 0.1481050855686 0
 0.5219326938337 0.1722994233957 0
 0.3096547958755 0.2895603850801 0
 0.4169931592143 0.197434692024 0
 0.6393296578888 0.05149052600473 0
 0.724270207149 0.1147218548916 0
 0.7835524025538 0.2545930969552 0
 0.7847051555329 0.3998275049163 0
 0.7418707559788 0.5390007641698 0
 0.67092361911 0.6709238209967 0
 0.5739992337782 0.7900422341566 0
 0.4539889647361 0.8910036794475 0
 0.1375736530442 0.8706243903544 5.555061743285
 0 0.9183981003917 5.555061743285
 0 0.8829389998977 4.546299721872
 0.1285090765119 0.8154064041047 4.546299721872
 0.2543465163232 0.7842880580694 4.546299721872
 0.2720512166086 0.8378562885262 4.546299721872
 0.1433381068594 0.9060834908484 4.546299721872
 0 0.9496006471573 4.546299721872
 0 0.827721013648 3.586926222535
 0.1139828267236 0.728076472987 3.586926222535
 0.2259961094695 0.6995022386479 3.586926222535
 0.3739274205066 0.7343904126888 3.586926222535
 0.3325778537485 0.6545081879295 3.586926222535
 0.4842289256906 0.6666544849105 3.586926222535
 0.3997956741296 0.7847911272488 3.586926222535
 0.2833280192039 0.8722218514498 3.586926222535
 0.1483762870697 0.937286037614 3.586926222535
 0 0.9768647784066 3.586926222535
 0.07222743599575 0.6693660578787 2.683733745664
 0 0.7403910825303 2.683733745664
 0.1503634658206 0.6389528312663 2.683733745664
 0.2424053466161 0.6009264993741 2.683733745664
 0.4308840303844 0.5938427166833 2.683733745664
 0.3335715672256 0.5498219087911 2.683733745664
 0.5184791323504 0.5188138411694 2.683733745664
 0.5932456414323 0.4311597532307 2.683733745664
 0.5825605624489 0.5826150910328 2.683733745664
 0.5176520622297 0.7125232710023 2.683733745664
 0.4163005032923 0.817080790447 2.683733745664
 0.2931919814251 0.9024182503711 2.683733745664
 0.152748655266 0.9645501688633 2.683733745664
 0 1 2.683733745664
 0.07873167139404 0.5961983402797 1.846371421822
 0 0.6666666666667 1.846371421822
 0.1646024513969 0.5420378847525 1.846371421822
 0.250082330445 0.504275651092 1.846371421822
 0.4112056439849 0.4899446784213 1.846371421822
 0.3252440600672 0.4697169598598 1.846371421822
 0.476422322522 0.411586661716 1.846371421822
 0.5423754590275 0.3319469984476 1.846371421822
 0.653376732596 0.3329714515308 1.846371421822
 0.66652863517 0.4842784302027 1.846371421822
 0.6227440828572 0.6227526396701 1.846371421822
 0.5389988362591 0.7418767901456 1.846371421822
 0.4307573706056 0.8454183119926 1.846371421822
 0.3017676236803 0.9287546617718 1.846371421822
 0.1564339677228 0.9876853904567 1.846371421822
 0.08427850986593 0.4961336596198 1.089934583049
 0 0.5555555555556 1.089934583049
 0.1753224836187 0.4483208849901 1.089934583049
 0.5908024814893 0.2435152163897 1.089934583049
 0.273693549473 0.3981065599042 1.089934583049
 0.3725193261742 0.394020341889 1.089934583049
 0.4329303148826 0.3097738336628 1.089934583049
 0.4938568683689 0.2502508790365 1.089934583049
 0.6974103993857 0.2266267364537 1.089934583049
 0.7340788388441 0.3740370205956 1.089934583049
 0.7124971377067 0.5176612965115 1.089934583049
 0.6484184672287 0.6484200277526 1.089934583049
 0.557707783528 0.7676202041986 1.089934583049
 0.4433419747619 0.8701086787511 1.089934583049
 0.3090166412276 0.951055534923 1.089934583049
 0.09234460493266 0.386455912959 0.4426509884766
 0 0.4444444444444 0.4426509884766
 0.1916747288221 0.3385436355079 0.4426509884766
 0.6175142922281 0.1481050855686 0.4426509884766
 0.5219326938337 0.1722994233957 0.4426509884766
 0.3096547958755 0.2895603850801 0.4426509884766
 0.4169931592143 0.197434692024 0.4426509884766
 0.6393296578888 0.05149052600473 0.4426509884766
 0.724270207149 0.1147218548916 0.4426509884766
 0.7835524025538 0.2545930969552 0.4426509884766
 0.7847051555329 0.3998275049163 0.4426509884766
 0.7418707559788 0.5390007641698 0.4426509884766
 0.67092361911 0.6709238209967 0.4426509884766
 0.5739992337782 0.7900422341566 0.4426509884766
 0.4539889647361 0.8910036794475 0.4426509884766
 0.09659083206012 0.2793271190065 0
 0 0.3333333333333 0
 0.202768286564 0.2210458448209 0
 0.5475413796463 0.08491420725582 0
 0.462827555225 0.1096276026867 0
 0.5607071627244 0.00604587778764 0
 0.2985033670457 0.1597633309686 0
 0.3823468618714 0.08593031622376 0
 0.6377090123801 -0.04632294130577 0
 0.7332973839436 -6.960852902193e-17 0
 0.813732262004 0.1288829100897 0
 0.8375909843662 0.2721497283318 0
 0.8170555904432 0.4163105108397 0
 0.7676192597921 0.5577078776312 0
 0.6905217652568 0.6905218270228 0
 0.5877840242295 0.8090152794042 0
 0.1375736530442 0.8706243903544 6.60812761576
 0 0.9183981003917 6.60812761576
 0 0.8829389998977 5.555061743285
 0.1285090765119 0.8154064041047 5.555061743285
 0.2543465163232 0.7842880580694 5.555061743285
 0.2720512166086 0.8378562885262 5.555061743285
 0.1433381068594 0.9060834908484 5.555061743285
 0 0.9496006471573 5.555061743285
 0 0.827721013648 4.546299721872
 0.1139828267236 0.728076472987 4.546299721872
 0.2259961094695 0.6995022386479 4.546299721872
 0.3739274205066 0.7343904126888 4.546299721872
 0.3325778537485 0.6545081879295 4.546299721872
 0.4842289256906 0.6666544849105 4.546299721872
 0.3997956741296 0.7847911272488 4.546299721872
 0.2833280192039 0.8722218514498 4.546299721872
 0.1483762870697 0.937286037614 4.546299721872
 0 0.9768647784066 4.546299721872
 0.07222743599575 0.6693660578787 3.586926222535
 0 0.7403910825303 3.586926222535
 0.1503634658206 0.6389528312663 3.586926222535
 0.2424053466161 0.6009264993741 3.586926222535
 0.4308840303844 0.5938427166833 3.586926222535
 0.3335715672256 0.5498219087911 3.586926222535
 0.5184791323504 0.5188138411694 3.586926222535
 0.5932456414323 0.4311597532307 3.586926222535
 0.5825605624489 0.5826150910328 3.586926222535
 0.5176520622297 0.7125232710023 3.586926222535
 0.4163005032923 0.817080790447 3.586926222535
 0.2931919814251 0.9024182503711 3.586926222535
 0.152748655266 0.9645501688633 3.586926222535
 0 1 3.586926222535
 0.07873167139404 0.5961983402797 2.683733745664
 0 0.6666666666667 2.683733745664
 0.1646024513969 0.5420378847525 2.683733745664
 0.250082330445 0.504275651092 2.683733745664
 0.4112056439849 0.4899446784213 2.683733745664
 0.3252440600672 0.4697169598598 2.683733745664
 0.476422322522 0.411586661716 2.683733745664
 0.5423754590275 0.3319469984476 2.683733745664
 0.653376732596 0.3329714515308 2.683733745664
 0.66652863517 0.4842784302027 2.683733745664
 0.6227440828572 0.6227526396701 2.683733745664
 0.5389988362591 0.7418767901456 2.683733745664
 0.4307573706056 0.8454183119926 2.683733745664
 0.3017676236803 0.9287546617718 2.683733745664
 0.1564339677228 0.9876853904567 2.683733745664
 0.08427850986593 0.4961336596198 1.846371421822
 0 0.5555555555556 1.846371421822
 0.1753224836187 0.4483208849901 1.846371421822
 0.5908024814893 0.2435152163897 1.846371421822
 0.273693549473 0.3981065599042 1.846371421822
 0.3725193261742 0.394020341889 1.846371421822
 0.4329303148826 0.3097738336628 1.846371421822
 0.4938568683689 0.2502508790365 1.846371421822
 0.6974103993857 0.2266267364537 1.846371421822
 0.7340788388441 0.3740370205956 1.846371421822
 0.7124971377067 0.5176612965115 1.846371421822
 0.6484184672287 0.6484200277526 1.846371421822
 0.557707783528 0.7676202041986 1.846371421822
 0.4433419747619 0.8701086787511 1.846371421822
 0.3090166412276 0.951055534923 1.846371421822
 0.09234460493266 0.386455912959 1.089934583049
 0 0.4444444444444 1.089934583049
 0.1916747288221 0.3385436355079 1.089934583049
 0.6175142922281 0.1481050855686 1.089934583049
 0.5219326938337 0.1722994233957 1.089934583049
 0.3096547958755 0.2895603850801 1.089934583049
 0.4169931592143 0.197434692024 1.089934583049
 0.6393296578888 0.05149052600473 1.089934583049
 0.724270207149 0.1147218548916 1.089934583049
 0.7835524025538 0.2545930969552 1.089934583049
 0.7847051555329 0.3998275049163 1.089934583049
 0.7418707559788 0.5390007641698 1.089934583049
 0.67092361911 0.6709238209967 1.089934583049
 0.5739992337782 0.7900422341566 1.089934583049
 0.4539889647361 0.8910036794475 1.089934583049
 0.09659083206012 0.2793271190065 0.4426509884766
 0 0.3333333333333 0.4426509884766
 0.202768286564 0.2210458448209 0.4426509884766
 0.5475413796463 0.08491420725582 0.4426509884766
 0.462827555225 0.1096276026867 0.4426509884766
 0.5607071627244 0.00604587778764 0.4426509884766
 0.2985033670457 0.1597633309686 0.4426509884766
 0.3823468618714 0.08593031622376 0.4426509884766
 0.6377090123801 -0.04632294130577 0.4426509884766
 0.7332973839436 -6.960852902193e-17 0.4426509884766
 0.813732262004 0.1288829100897 0.4426509884766
 0.8375909843662 0.2721497283318 0.4426509884766
 0.8170555904432 0.4163105108397 0.4426509884766
 0.7676192597921 0.5577078776312 0.4426509884766
 0.6905217652568 0.6905218270228 0.4426509884766
 0.5877840242295 0.8090152794042 0.4426509884766
 0.09660077444913 0.166298753026 0
 0 0.2222222222222 0
 0.1938004662508 0.1084273131753 0
 0.4751241188415 0.01175264781708 0
 0.5397200599192 -0.069916531196 0
 0.2879313986339 0.04134302108876 0
 0.3714289397896 -0.01680738952531 0
 0.6133941408799 -0.1446423079272 0
 0.724270207149 -0.1147218548916 0
 0.8238754591805 -8.777945038334e-17 0
 0.8698525834496 0.1377710664169 0
 0.8721216782638 0.283369341488 0
 0.8454136682836 0.4307596916281 0
 0.7900419732275 0.5739989210242 0
 0.7071046723868 0.7071047136071 0
 0.1375736530442 0.8706243903544 7.69187238424
 0 0.9183981003917 7.69187238424
 0 0.8829389998977 6.60812761576
 0.1285090765119 0.8154064041047 6.60812761576
 0.2543465163232 0.7842880580694 6.60812761576
 0.2720512166086 0.8378562885262 6.60812761576
 0.1433381068594 0.9060834908484 6.60812761576
 0 0.9496006471573 6.60812761576
 0 0.827721013648 5.555061743285
 0.1139828267236 0.728076472987 5.555061743285
 0.2259961094695 0.6995022386479 5.555061743285
 0.3739274205066 0.7343904126888 5.555061743285
 0.3325778537485 0.6545081879295 5.555061743285
 0.4842289256906 0.6666544849105 5.555061743285
 0.3997956741296 0.7847911272488 5.555061743285
 0.2833280192039 0.8722218514498 5.555061743285
 0.1483762870697 0.937286037614 5.555061743285
 0 0.9768647784066 5.555061743285
 0.07222743599575 0.6693660578787 4.546299721872
 0 0.7403910825303 4.546299721872
 0.1503634658206 0.6389528312663 4.546299721872
 0.2424053466161 0.6009264993741 4.546299721872
 0.4308840303844 0.5938427166833 4.546299721872
 0.3335715672256 0.5498219087911 4.546299721872
 0.5184791323504 0.5188138411694 4.546299721872
 0.5932456414323 0.4311597532307 4.546299721872
 0.5825605624489 0.5826150910328 4.546299721872
 0.5176520622297 0.7125232710023 4.546299721872
 0.4163005032923 0.817080790447 4.546299721872
 0.2931919814251 0.9024182503711 4.546299721872
 0.152748655266 0.9645501688633 4.546299721872
 0 1 4.546299721872
 0.07873167139404 0.5961983402797 3.586926222535
 0 0.6666666666667 3.586926222535
 0.1646024513969 0.5420378847525 3.586926222535
 0.250082330445 0.504275651092 3.586926222535
 0.4112056439849 0.4899446784213 3.586926222535
 0.3252440600672 0.4697169598598 3.586926222535
 0.476422322522 0.411586661716 3.586926222535
 0.5423754590275 0.3319469984476 3.586926222535
 0.653376732596 0.3329714515308 3.586926222535
 0.66652863517 0.4842784302027 3.586926222535
 0.6227440828572 0.6227526396701 3.586926222535
 0.5389988362591 0.7418767901456 3.586926222535
 0.4307573706056 0.8454183119926 3.586926222535
 0.3017676236803 0.9287546617718 3.586926222535
 0.1564339677228 0.9876853904567 3.586926222535
 0.08427850986593 0.4961336596198 2.683733745664
 0 0.5555555555556 2.683733745664
 0.1753224836187 0.4483208849901 2.683733745664
 0.5908024814893 0.2435152163897 2.683733745664
 0.273693549473 0.3981065599042 2.683733745664
 0.3725193261742 0.394020341889 2.683733745664
 0.4329303148826 0.3097738336628 2.683733745664
 0.4938568683689 0.2502508790365 2.683733745664
 0.6974103993857 0.2266267364537 2.683733745664
 0.7340788388441 0.3740370205956 2.683733745664
 0.7124971377067 0.5176612965115 2.683733745664
 0.6484184672287 0.6484200277526 2.683733745664
 0.557707783528 0.7676202041986 2.683733745664
 0.4433419747619 0.8701086787511 2.683733745664
 0.3090166412276 0.951055534923 2.683733745664
 0.09234460493266 0.386455912959 1.846371421822
 0 0.4444444444444 1.846371421822
 0.1916747288221 0.3385436355079 1.846371421822
 0.6175142922281 0.1481050855686 1.846371421822
 0.5219326938337 0.1722994233957 1.846371421822
 0.3096547958755 0.2895603850801 1.846371421822
 0.4169931592143 0.197434692024 1.846371421822
 0.6393296578888 0.05149052600473 1.846371421822
 0.724270207149 0.1147218548916 1.846371421822
 0.7835524025538 0.2545930969552 1.846371421822
 0.7847051555329 0.3998275049163 1.846371421822
 0.7418707559788 0.5390007641698 1.846371421822
 0.67092361911 0.6709238209967 1.846371421822
 0.5739992337782 0.7900422341566 1.846371421822
 0.4539889647361 0.8910036794475 1.846371421822
 0.09659083206012 0.2793271190065 1.089934583049
 0 0.3333333333333 1.089934583049
 0.202768286564 0.2210458448209 1.089934583049
 0.5475413796463 0.08491420725582 1.089934583049
 0.462827555225 0.1096276026867 1.089934583049
 0.5607071627244 0.00604587778764 1.089934583049
 0.2985033670457 0.1597633309686 1.089934583049
 0.3823468618714 0.08593031622376 1.089934583049
 0.6377090123801 -0.04632294130577 1.089934583049
 0.7332973839436 -6.960852902193e-17 1.089934583049
 0.813732262004 0.1288829100897 1.089934583049
 0.8375909843662 0.2721497283318 1.089934583049
 0.8170555904432 0.4163105108397 1.089934583049
 0.7676192597921 0.5577078776312 1.089934583049
 0.6905217652568 0.6905218270228 1.089934583049
 0.5877840242295 0.8090152794042 1.089934583049
 0.09660077444913 0.166298753026 0.4426509884766
 0 0.2222222222222 0.4426509884766
 0.1938004662508 0.1084273131753 0.4426509884766
 0.4751241188415 0.01175264781708 0.4426509884766
 0.5397200599192 -0.069916531196 0.4426509884766
 0.2879313986339 0.04134302108876 0.4426509884766
 0.3714289397896 -0.01680738952531 0.4426509884766
 0.6133941408799 -0.1446423079272 0.4426509884766
 0.724270207149 -0.1147218548916 0.4426509884766
 0.8238754591805 -8.777945038334e-17 0.4426509884766
 0.8698525834496 0.1377710664169 0.4426509884766
 0.8721216782638 0.283369341488 0.4426509884766
 0.8454136682836 0.4307596916281 0.4426509884766
 0.7900419732275 0.5739989210242 0.4426509884766
 0.7071046723868 0.7071047136071 0.4426509884766
 0.09684941618041 0.05186212831583 0
 0 0.1111111111111 0
 0.1886167059323 -0.003946990327681 0
 0.5123752967331 -0.1674691847013 0
 0.4384583400655 -0.09188938137016 0
 0.2780368468787 -0.06032152329243 0
 0.3575383979806 -0.1147114657469 0
 0.4872920335386 -0.2516709842468 0
 0.5862898593804 -0.2403969280806 0
 0.6974103993857 -0.2266267364537 0
 0.813732262004 -0.1288829100897 0
 0.880695334061 -1.06849166346e-16 0
 0.9057135272566 0.1434509026353 0
 0.9023907474029 0.2932043595631 0
 0.8701090212958 0.4433426621917 0
 0.8090148505677 0.5877835799604 0
 0.1375736530442 0.8706243903544 8.744938256715
 0 0.9183981003917 8.744938256715
 0 0.8829389998977 7.69187238424
 0.1285090765119 0.8154064041047 7.69187238424
 0.2543465163232 0.7842880580694 7.69187238424
 0.2720512166086 0.8378562885262 7.69187238424
 0.1433381068594 0.9060834908484 7.69187238424
 0 0.9496006471573 7.69187238424
 0 0.827721013648 6.60812761576
 0.1139828267236 0.728076472987 6.60812761576
 0.2259961094695 0.6995022386479 6.60812761576
 0.3739274205066 0.7343904126888 6.60812761576
 0.3325778537485 0.6545081879295 6.60812761576
 0.4842289256906 0.6666544849105 6.60812761576
 0.3997956741296 0.7847911272488 6.60812761576
 0.2833280192039 0.8722218514498 6.60812761576
 0.1483762870697 0.937286037614 6.60812761576
 0 0.9768647784066 6.60812761576
 0.07222743599575 0.6693660578787 5.555061743285
 0 0.7403910825303 5.555061743285
 0.1503634658206 0.6389528312663 5.555061743285
 0.2424053466161 0.6009264993741 5.555061743285
 0.4308840303844 0.5938427166833 5.555061743285
 0.3335715672256 0.5498219087911 5.555061743285
 0.5184791323504 0.5188138411694 5.555061743285
 0.5932456414323 0.4311597532307 5.555061743285
 0.5825605624489 0.5826150910328 5.555061743285
 0.5176520622297 0.7125232710023 5.555061743285
 0.4163005032923 0.817080790447 5.555061743285
 0.2931919814251 0.9024182503711 5.555061743285
 0.152748655266 0.9645501688633 5.555061743285
 0 1 5.555061743285
 0.07873167139404 0.5961983402797 4.546299721872
 0 0.6666666666667 4.546299721872
 0.1646024513969 0.5420378847525 4.546299721872
 0.250082330445 0.504275651092 4.546299721872
 0.4112056439849 0.4899446784213 4.546299721872
 0.3252440600672 0.4697169598598 4.546299721872
 0.476422322522 0.411586661716 4.546299721872
 0.5423754590275 0.3319469984476 4.546299721872
 0.653376732596 0.3329714515308 4.546299721872
 0.66652863517 0.4842784302027 4.546299721872
 0.6227440828572 0.6227526396701 4.546299721872
 0.5389988362591 0.7418767901456 4.546299721872
 0.4307573706056 0.8454183119926 4.546299721872
 0.3017676236803 0.9287546617718 4.546299721872
 0.1564339677228 0.9876853904567 4.546299721872
 0.08427850986593 0.4961336596198 3.586926222535
 0 0.5555555555556 3.586926222535
 0.1753224836187 0.4483208849901 3.586926222535
 0.5908024814893 0.2435152163897 3.586926222535
 0.273693549473 0.3981065599042 3.586926222535
 0.3725193261742 0.394020341889 3.586926222535
 0.4329303148826 0.3097738336628 3.586926222535
 0.4938568683689 0.2502508790365 3.586926222535
 0.6974103993857 0.2266267364537 3.586926222535
 0.7340788388441 0.3740370205956 3.586926222535
 0.7124971377067 0.5176612965115 3.586926222535
 0.6484184672287 0.6484200277526 3.586926222535
 0.557707783528 0.7676202041986 3.586926222535
 0.4433419747619 0.8701086787511 3.586926222535
 0.3090166412276 0.951055534923 3.586926222535
 0.09234460493266 0.386455912959 2.683733745664
 0 0.4444444444444 2.683733745664
 0.1916747288221 0.3385436355079 2.683733745664
 0.6175142922281 0.1481050855686 2.683733745664
 0.5219326938337 0.1722994233957 2.683733745664
 0.3096547958755 0.2895603850801 2.683733745664
 0.4169931592143 0.197434692024 2.683733745664
 0.6393296578888 0.05149052600473 2.683733745664
 0.724270207149 0.1147218548916 2.683733745664
 0.7835524025538 0.2545930969552 2.683733745664
 0.7847051555329 0.3998275049163 2.683733745664
 0.7418707559788 0.5390007641698 2.683733745664
 0.67092361911 0.6709238209967 2.683733745664
 0.5739992337782 0.7900422341566 2.683733745664
 0.4539889647361 0.8910036794475 2.683733745664
 0.09659083206012 0.2793271190065 1.846371421822
 0 0.3333333333333 1.846371421822
 0.202768286564 0.2210458448209 1.846371421822
 0.5475413796463 0.08491420725582 1.846371421822
 0.462827555225 0.1096276026867 1.846371421822
 0.5607071627244 0.00604587778764 1.846371421822
 0.2985033670457 0.1597633309686 1.846371421822
 0.3823468618714 0.08593031622376 1.846371421822
 0.6377090123801 -0.04632294130577 1.846371421822
 0.7332973839436 -6.960852902193e-17 1.846371421822
 0.813732262004 0.1288829100897 1.846371421822
 0.8375909843662 0.2721497283318 1.846371421822
 0.8170555904432 0.4163105108397 1.846371421822
 0.7676192597921 0.5577078776312 1.846371421822
 0.6905217652568 0.6905218270228 1.846371421822
 0.5877840242295 0.8090152794042 1.846371421822
 0.09660077444913 0.166298753026 1.089934583049
 0 0.2222222222222 1.089934583049
 0.1938004662508 0.1084273131753 1.089934583049
 0.4751241188415 0.01175264781708 1.089934583049
 0.5397200599192 -0.069916531196 1.089934583049
 0.2879313986339 0.04134302108876 1.089934583049
 0.3714289397896 -0.01680738952531 1.089934583049
 0.6133941408799 -0.1446423079272 1.089934583049
 0.724270207149 -0.1147218548916 1.089934583049
 0.8238754591805 -8.777945038334e-17 1.089934583049
 0.8698525834496 0.1377710664169 1.089934583049
 0.8721216782638 0.283369341488 1.089934583049
 0.8454136682836 0.4307596916281 1.089934583049
 0.7900419732275 0.5739989210242 1.089934583049
 0.7071046723868 0.7071047136071 1.089934583049
 0.09684941618041 0.05186212831583 0.4426509884766
 0 0.1111111111111 0.4426509884766
 0.1886167059323 -0.003946990327681 0.4426509884766
 0.5123752967331 -0.1674691847013 0.4426509884766
 0.4384583400655 -0.09188938137016 0.4426509884766