VARIABLES = "x" "y"
ZONE T="InnerCells" SOLUTIONTIME=0 DATAPACKING=POINT N=2601 E=5000 ZONETYPE=FETRIANGLE
 1 1
 1 0.9971008813453
 0.9971008813453 1
 1 0.9912115156536
 0.9971008813453 0.9971008813453
 0.9912115156536 1
 1 0.9831864276118
 0.9971008813453 0.9912115156536
 0.9912115156536 0.9971008813453
 0.9831864276118 1
 1 0.9733582973631
 0.9971008813453 0.9831864276118
 0.9912115156536 0.9912115156536
 0.9831864276118 0.9971008813453
 0.9733582973631 1
 1 0.9619269212257
 0.9971008813453 0.9733582973631
 0.9912115156536 0.9831864276118
 0.9831864276118 0.9912115156536
 0.9733582973631 0.9971008813453
 0.9619269212257 1
 1 0.9490307795778
 0.9971008813453 0.9619269212257
 0.9912115156536 0.9733582973631
 0.9831864276118 0.9831864276118
 0.9733582973631 0.9912115156536
 0.9619269212257 0.9971008813453
 0.9490307795778 1
 1 0.9347736833484
 0.9971008813453 0.9490307795778
 0.9912115156536 0.9619269212257
 0.9831864276118 0.9733582973631
 0.9733582973631 0.9831864276118
 0.9619269212257 0.9912115156536
 0.9490307795778 0.9971008813453
 0.9347736833484 1
 1 0.9192374599065
 0.9971008813453 0.9347736833484
 0.9912115156536 0.9490307795778
 0.9831864276118 0.9619269212257
 0.9733582973631 0.9733582973631
 0.9619269212257 0.9831864276118
 0.9490307795778 0.9912115156536
 0.9347736833484 0.9971008813453
 0.9192374599065 1
 1 0.9024889112437
 0.9971008813453 0.9192374599065
 0.9912115156536 0.9347736833484
 0.9831864276118 0.9490307795778
 0.9733582973631 0.9619269212257
 0.9619269212257 0.9733582973631
 0.9490307795778 0.9831864276118
 0.9347736833484 0.9912115156536
 0.9192374599065 0.9971008813453
 0.9024889112437 1
 1 0.8845840075274
 0.9971008813453 0.9024889112437
 0.9912115156536 0.9192374599065
 0.9831864276118 0.9347736833484
 0.9733582973631 0.9490307795778
 0.9619269212257 0.9619269212257
 0.9490307795778 0.9733582973631
 0.9347736833484 0.9831864276118
 0.9192374599065 0.9912115156536
 0.9024889112437 0.9971008813453
 0.8845840075274 1
 1 0.8655705918074
 0.9971008813453 0.8845840075274
 0.9912115156536 0.9024889112437
 0.9831864276118 0.9192374599065
 0.9733582973631 0.9347736833484
 0.9619269212257 0.9490307795778
 0.9490307795778 0.9619269212257
 0.9347736833484 0.9733582973631
 0.9192374599065 0.9831864276118
 0.9024889112437 0.9912115156536
 0.8845840075274 0.9971008813453
 0.8655705918074 1
 1 0.845490216448
 0.9971008813453 0.8655705918074
 0.9912115156536 0.8845840075274
 0.9831864276118 0.9024889112437
 0.9733582973631 0.9192374599065
 0.9619269212257 0.9347736833484
 0.9490307795778 0.9490307795778
 0.9347736833484 0.9619269212257
 0.9192374599065 0.9733582973631
 0.9024889112437 0.9831864276118
 0.8845840075274 0.9912115156536
 0.8655705918074 0.9971008813453
 0.845490216448 1
 1 0.8243794414152
 0.9971008813453 0.845490216448
 0.9912115156536 0.8655705918074
 0.9831864276118 0.8845840075274
 0.9733582973631 0.9024889112437
 0.9619269212257 0.9192374599065
 0.9490307795778 0.9347736833484
 0.9347736833484 0.9490307795778
 0.9192374599065 0.9619269212257
 0.9024889112437 0.9733582973631
 0.8845840075274 0.9831864276118
 0.8655705918074 0.9912115156536
 0.845490216448 0.9971008813453
 0.8243794414152 1
 1 0.8022707825575
 0.9971008813453 0.8243794414152
 0.9912115156536 0.845490216448
 0.9831864276118 0.8655705918074
 0.9733582973631 0.8845840075274
 0.9619269212257 0.9024889112437
 0.9490307795778 0.9192374599065
 0.9347736833484 0.9347736833484
 0.9192374599065 0.9490307795778
 0.9024889112437 0.9619269212257
 0.8845840075274 0.9733582973631
 0.8655705918074 0.9831864276118
 0.845490216448 0.9912115156536
 0.8243794414152 0.9971008813453
 0.8022707825575 1
 1 0.7791934231547
 0.9971008813453 0.8022707825575
 0.9912115156536 0.8243794414152
 0.9831864276118 0.845490216448
 0.9733582973631 0.8655705918074
 0.9619269212257 0.8845840075274
 0.9490307795778 0.9024889112437
 0.9347736833484 0.9192374599065
 0.9192374599065 0.9347736833484
 0.9024889112437 0.9490307795778
 0.8845840075274 0.9619269212257
 0.8655705918074 0.9733582973631
 0.845490216448 0.9831864276118
 0.8243794414152 0.9912115156536
 0.8022707825575 0.9971008813453
 0.7791934231547 1
 1 0.7551737600538
 0.9971008813453 0.7791934231547
 0.9912115156536 0.8022707825575
 0.9831864276118 0.8243794414152
 0.9733582973631 0.845490216448
 0.9619269212257 0.8655705918074
 0.9490307795778 0.8845840075274
 0.9347736833484 0.9024889112437
 0.9192374599065 0.9192374599065
 0.9024889112437 0.9347736833484
 0.8845840075274 0.9490307795778
 0.8655705918074 0.9619269212257
 0.845490216448 0.9733582973631
 0.8243794414152 0.9831864276118
 0.8022707825575 0.9912115156536
 0.7791934231547 0.9971008813453
 0.7551737600538 1
 1 0.7302358310132
 0.9971008813453 0.7551737600538
 0.9912115156536 0.7791934231547
 0.9831864276118 0.8022707825575
 0.9733582973631 0.8243794414152
 0.9619269212257 0.845490216448
 0.9490307795778 0.8655705918074
 0.9347736833484 0.8845840075274
 0.9192374599065 0.9024889112437
 0.9024889112437 0.9192374599065
 0.8845840075274 0.9347736833484
 0.8655705918074 0.9490307795778
 0.845490216448 0.9619269212257
 0.8243794414152 0.9733582973631
 0.8022707825575 0.9831864276118
 0.7791934231547 0.9912115156536
 0.7551737600538 0.9971008813453
 0.7302358310132 1
 1 0.7044016547072
 0.9971008813453 0.7302358310132
 0.9912115156536 0.7551737600538
 0.9831864276118 0.7791934231547
 0.9733582973631 0.8022707825575
 0.9619269212257 0.8243794414152
 0.9490307795778 0.845490216448
 0.9347736833484 0.8655705918074
 0.9192374599065 0.8845840075274
 0.9024889112437 0.9024889112437
 0.8845840075274 0.9192374599065
 0.8655705918074 0.9347736833484
 0.845490216448 0.9490307795778
 0.8243794414152 0.9619269212257
 0.8022707825575 0.9733582973631
 0.7791934231547 0.9831864276118
 0.7551737600538 0.9912115156536
 0.7302358310132 0.9971008813453
 0.7044016547072 1
 1 0.6776915051952
 0.9971008813453 0.7044016547072
 0.9912115156536 0.7302358310132
 0.9831864276118 0.7551737600538
 0.9733582973631 0.7791934231547
 0.9619269212257 0.8022707825575
 0.9490307795778 0.8243794414152
 0.9347736833484 0.845490216448
 0.9192374599065 0.8655705918074
 0.9024889112437 0.8845840075274
 0.8845840075274 0.9024889112437
 0.8655705918074 0.9192374599065
 0.845490216448 0.9347736833484
 0.8243794414152 0.9490307795778
 0.8022707825575 0.9619269212257
 0.7791934231547 0.9733582973631
 0.7551737600538 0.9831864276118
 0.7302358310132 0.9912115156536
 0.7044016547072 0.9971008813453
 0.6776915051952 1
 1 0.6501241363382
 0.9971008813453 0.6776915051952
 0.9912115156536 0.7044016547072
 0.9831864276118 0.7302358310132
 0.9733582973631 0.7551737600538
 0.9619269212257 0.7791934231547
 0.9490307795778 0.8022707825575
 0.9347736833484 0.8243794414152
 0.9192374599065 0.845490216448
 0.9024889112437 0.8655705918074
 0.8845840075274 0.8845840075274
 0.8655705918074 0.9024889112437
 0.845490216448 0.9192374599065
 0.8243794414152 0.9347736833484
 0.8022707825575 0.9490307795778
 0.7791934231547 0.9619269212257
 0.7551737600538 0.9733582973631
 0.7302358310132 0.9831864276118
 0.7044016547072 0.9912115156536
 0.6776915051952 0.9971008813453
 0.6501241363382 1
 1 0.6217169673764
 0.9971008813453 0.6501241363382
 0.9912115156536 0.6776915051952
 0.9831864276118 0.7044016547072
 0.9733582973631 0.7302358310132
 0.9619269212257 0.7551737600538
 0.9490307795778 0.7791934231547
 0.9347736833484 0.8022707825575
 0.9192374599065 0.8243794414152
 0.9024889112437 0.845490216448
 0.8845840075274 0.8655705918074
 0.8655705918074 0.8845840075274
 0.845490216448 0.9024889112437
 0.8243794414152 0.9192374599065
 0.8022707825575 0.9347736833484
 0.7791934231547 0.9490307795778
 0.7551737600538 0.9619269212257
 0.7302358310132 0.9733582973631
 0.7044016547072 0.9831864276118
 0.6776915051952 0.9912115156536
 0.6501241363382 0.9971008813453
 0.6217169673764 1
 1 0.5924862379525
 0.9971008813453 0.6217169673764
 0.9912115156536 0.6501241363382
 0.9831864276118 0.6776915051952
 0.9733582973631 0.7044016547072
 0.9619269212257 0.7302358310132
 0.9490307795778 0.7551737600538
 0.9347736833484 0.7791934231547
 0.9192374599065 0.8022707825575
 0.9024889112437 0.8243794414152
 0.8845840075274 0.845490216448
 0.8655705918074 0.8655705918074
 0.845490216448 0.8845840075274
 0.8243794414152 0.9024889112437
 0.8022707825575 0.9192374599065
 0.7791934231547 0.9347736833484
 0.7551737600538 0.9490307795778
 0.7302358310132 0.9619269212257
 0.7044016547072 0.9733582973631
 0.6776915051952 0.9831864276118
 0.6501241363382 0.9912115156536
 0.6217169673764 0.9971008813453
 0.5924862379525 1
 1 0.5624471387909
 0.9971008813453 0.5924862379525
 0.9912115156536 0.6217169673764
 0.9831864276118 0.6501241363382
 0.9733582973631 0.6776915051952
 0.9619269212257 0.7044016547072
 0.9490307795778 0.7302358310132
 0.9347736833484 0.7551737600538
 0.9192374599065 0.7791934231547
 0.9024889112437 0.8022707825575
 0.8845840075274 0.8243794414152
 0.8655705918074 0.845490216448
 0.845490216448 0.8655705918074
 0.8243794414152 0.8845840075274
 0.8022707825575 0.9024889112437
 0.7791934231547 0.9192374599065
 0.7551737600538 0.9347736833484
 0.7302358310132 0.9490307795778
 0.7044016547072 0.9619269212257
 0.6776915051952 0.9733582973631
 0.6501241363382 0.9831864276118
 0.6217169673764 0.9912115156536
 0.5924862379525 0.9971008813453
 0.5624471387909 1
 1 0.5316139227647
 0.9971008813453 0.5624471387909
 0.9912115156536 0.5924862379525
 0.9831864276118 0.6217169673764
 0.9733582973631 0.6501241363382
 0.9619269212257 0.6776915051952
 0.9490307795778 0.7044016547072
 0.9347736833484 0.7302358310132
 0.9192374599065 0.7551737600538
 0.9024889112437 0.7791934231547
 0.8845840075274 0.8022707825575
 0.8655705918074 0.8243794414152
 0.845490216448 0.845490216448
 0.8243794414152 0.8655705918074
 0.8022707825575 0.8845840075274
 0.7791934231547 0.9024889112437
 0.7551737600538 0.9192374599065
 0.7302358310132 0.9347736833484
 0.7044016547072 0.9490307795778
 0.6776915051952 0.9619269212257
 0.6501241363382 0.9733582973631
 0.6217169673764 0.9831864276118
 0.5924862379525 0.9912115156536
 0.5624471387909 0.9971008813453
 0.5316139227647 1
 1 0.5
 0.9971008813453 0.5316139227647
 0.9912115156536 0.5624471387909
 0.9831864276118 0.5924862379525
 0.9733582973631 0.6217169673764
 0.9619269212257 0.6501241363382
 0.9490307795778 0.6776915051952
 0.9347736833484 0.7044016547072
 0.9192374599065 0.7302358310132
 0.9024889112437 0.7551737600538
 0.8845840075274 0.7791934231547
 0.8655705918074 0.8022707825575
 0.845490216448 0.8243794414152
 0.8243794414152 0.845490216448
 0.8022707825575 0.8655705918074
 0.7791934231547 0.8845840075274
 0.7551737600538 0.9024889112437
 0.7302358310132 0.9192374599065
 0.7044016547072 0.9347736833484
 0.6776915051952 0.9490307795778
 0.6501241363382 0.9619269212257
 0.6217169673764 0.9733582973631
 0.5924862379525 0.9831864276118
 0.5624471387909 0.9912115156536
 0.5316139227647 0.9971008813453
 0.5 1
 1 0.4683860772353
 0.9971008813453 0.5
 0.9912115156536 0.5316139227647
 0.9831864276118 0.5624471387909
 0.9733582973631 0.5924862379525
 0.9619269212257 0.6217169673764
 0.9490307795778 0.6501241363382
 0.9347736833484 0.6776915051952
 0.9192374599065 0.7044016547072
 0.9024889112437 0.7302358310132
 0.8845840075274 0.7551737600538
 0.8655705918074 0.7791934231547
 0.845490216448 0.8022707825575
 0.8243794414152 0.8243794414152
 0.8022707825575 0.845490216448
 0.7791934231547 0.8655705918074
 0.7551737600538 0.8845840075274
 0.7302358310132 0.9024889112437
 0.7044016547072 0.9192374599065
 0.6776915051952 0.9347736833484
 0.6501241363382 0.9490307795778
 0.6217169673764 0.9619269212257
 0.5924862379525 0.9733582973631
 0.5624471387909 0.9831864276118
 0.5316139227647 0.9912115156536
 0.5 0.9971008813453
 0.4683860772353 1
 1 0.4375528612091
 0.9971008813453 0.4683860772353
 0.9912115156536 0.5
 0.9831864276118 0.5316139227647
 0.9733582973631 0.5624471387909
 0.9619269212257 0.5924862379525
 0.9490307795778 0.6217169673764
 0.9347736833484 0.6501241363382
 0.9192374599065 0.6776915051952
 0.9024889112437 0.7044016547072
 0.8845840075274 0.7302358310132
 0.8655705918074 0.7551737600538
 0.845490216448 0.7791934231547
 0.8243794414152 0.8022707825575
 0.8022707825575 0.8243794414152
 0.7791934231547 0.845490216448
 0.7551737600538 0.8655705918074
 0.7302358310132 0.8845840075274
 0.7044016547072 0.9024889112437
 0.6776915051952 0.9192374599065
 0.6501241363382 0.9347736833484
 0.6217169673764 0.9490307795778
 0.5924862379525 0.9619269212257
 0.5624471387909 0.9733582973631
 0.5316139227647 0.9831864276118
 0.5 0.9912115156536
 0.4683860772353 0.9971008813453
 0.4375528612091 1
 1 0.4075137620475
 0.9971008813453 0.4375528612091
 0.9912115156536 0.4683860772353
 0.9831864276118 0.5
 0.9733582973631 0.5316139227647
 0.9619269212257 0.5624471387909
 0.9490307795778 0.5924862379525
 0.9347736833484 0.6217169673764
 0.9192374599065 0.6501241363382
 0.9024889112437 0.6776915051952
 0.8845840075274 0.7044016547072
 0.8655705918074 0.7302358310132
 0.845490216448 0.7551737600538
 0.8243794414152 0.7791934231547
 0.8022707825575 0.8022707825575
 0.7791934231547 0.8243794414152
 0.7551737600538 0.845490216448
 0.7302358310132 0.8655705918074
 0.7044016547072 0.8845840075274
 0.6776915051952 0.9024889112437
 0.6501241363382 0.9192374599065
 0.6217169673764 0.9347736833484
 0.5924862379525 0.9490307795778
 0.5624471387909 0.9619269212257
 0.5316139227647 0.9733582973631
 0.5 0.9831864276118
 0.4683860772353 0.9912115156536
 0.4375528612091 0.9971008813453
 0.4075137620475 1
 1 0.3782830326236
 0.9971008813453 0.4075137620475
 0.9912115156536 0.4375528612091
 0.9831864276118 0.4683860772353
 0.9733582973631 0.5
 0.9619269212257 0.5316139227647
 0.9490307795778 0.5624471387909
 0.9347736833484 0.5924862379525
 0.9192374599065 0.6217169673764
 0.9024889112437 0.6501241363382
 0.8845840075274 0.6776915051952
 0.8655705918074 0.7044016547072
 0.845490216448 0.7302358310132
 0.8243794414152 0.7551737600538
 0.8022707825575 0.7791934231547
 0.7791934231547 0.8022707825575
 0.7551737600538 0.8243794414152
 0.7302358310132 0.845490216448
 0.7044016547072 0.8655705918074
 0.6776915051952 0.8845840075274
 0.6501241363382 0.9024889112437
 0.6217169673764 0.9192374599065
 0.5924862379525 0.9347736833484
 0.5624471387909 0.9490307795778
 0.5316139227647 0.9619269212257
 0.5 0.9733582973631
 0.4683860772353 0.9831864276118
 0.4375528612091 0.9912115156536
 0.4075137620475 0.9971008813453
 0.3782830326236 1
 1 0.3498758636618
 0.9971008813453 0.3782830326236
 0.9912115156536 0.4075137620475
 0.9831864276118 0.4375528612091
 0.9733582973631 0.4683860772353
 0.9619269212257 0.5
 0.9490307795778 0.5316139227647
 0.9347736833484 0.5624471387909
 0.9192374599065 0.5924862379525
 0.9024889112437 0.6217169673764
 0.8845840075274 0.6501241363382
 0.8655705918074 0.6776915051952
 0.845490216448 0.7044016547072
 0.8243794414152 0.7302358310132
 0.8022707825575 0.7551737600538
 0.7791934231547 0.7791934231547
 0.7551737600538 0.8022707825575
 0.7302358310132 0.8243794414152
 0.7044016547072 0.845490216448
 0.6776915051952 0.8655705918074
 0.6501241363382 0.8845840075274
 0.6217169673764 0.9024889112437
 0.5924862379525 0.9192374599065
 0.5624471387909 0.9347736833484
 0.5316139227647 0.9490307795778
 0.5 0.9619269212257
 0.4683860772353 0.9733582973631
 0.4375528612091 0.9831864276118
 0.4075137620475 0.9912115156536
 0.3782830326236 0.9971008813453
 0.3498758636618 1
 1 0.3223084948048
 0.9971008813453 0.3498758636618
 0.9912115156536 0.3782830326236
 0.9831864276118 0.4075137620475
 0.9733582973631 0.4375528612091
 0.9619269212257 0.4683860772353
 0.9490307795778 0.5
 0.9347736833484 0.5316139227647
 0.9192374599065 0.5624471387909
 0.9024889112437 0.5924862379525
 0.8845840075274 0.6217169673764
 0.8655705918074 0.6501241363382
 0.845490216448 0.6776915051952
 0.8243794414152 0.7044016547072
 0.8022707825575 0.7302358310132
 0.7791934231547 0.7551737600538
 0.7551737600538 0.7791934231547
 0.7302358310132 0.8022707825575
 0.7044016547072 0.8243794414152
 0.6776915051952 0.845490216448
 0.6501241363382 0.8655705918074
 0.6217169673764 0.8845840075274
 0.5924862379525 0.9024889112437
 0.5624471387909 0.9192374599065
 0.5316139227647 0.9347736833484
 0.5 0.9490307795778
 0.4683860772353 0.9619269212257
 0.4375528612091 0.9733582973631
 0.4075137620475 0.9831864276118
 0.3782830326236 0.9912115156536
 0.3498758636618 0.9971008813453
 0.3223084948048 1
 1 0.2955983452928
 0.9971008813453 0.3223084948048
 0.9912115156536 0.3498758636618
 0.9831864276118 0.3782830326236
 0.9733582973631 0.4075137620475
 0.9619269212257 0.4375528612091
 0.9490307795778 0.4683860772353
 0.9347736833484 0.5
 0.9192374599065 0.5316139227647
 0.9024889112437 0.5624471387909
 0.8845840075274 0.5924862379525
 0.8655705918074 0.6217169673764
 0.845490216448 0.6501241363382
 0.8243794414152 0.6776915051952
 0.8022707825575 0.7044016547072
 0.7791934231547 0.7302358310132
 0.7551737600538 0.7551737600538
 0.7302358310132 0.7791934231547
 0.7044016547072 0.8022707825575
 0.6776915051952 0.8243794414152
 0.6501241363382 0.845490216448
 0.6217169673764 0.8655705918074
 0.5924862379525 0.8845840075274
 0.5624471387909 0.9024889112437
 0.5316139227647 0.9192374599065
 0.5 0.9347736833484
 0.4683860772353 0.9490307795778
 0.4375528612091 0.9619269212257
 0.4075137620475 0.9733582973631
 0.3782830326236 0.9831864276118
 0.3498758636618 0.9912115156536
 0.3223084948048 0.9971008813453
 0.2955983452928 1
 1 0.2697641689868
 0.9971008813453 0.2955983452928
 0.9912115156536 0.3223084948048
 0.9831864276118 0.3498758636618
 0.9733582973631 0.3782830326236
 0.9619269212257 0.4075137620475
 0.9490307795778 0.4375528612091
 0.9347736833484 0.4683860772353
 0.9192374599065 0.5
 0.9024889112437 0.5316139227647
 0.8845840075274 0.5624471387909
 0.8655705918074 0.5924862379525
 0.845490216448 0.6217169673764
 0.8243794414152 0.6501241363382
 0.8022707825575 0.6776915051952
 0.7791934231547 0.7044016547072
 0.7551737600538 0.7302358310132
 0.7302358310132 0.7551737600538
 0.7044016547072 0.7791934231547
 0.6776915051952 0.8022707825575
 0.6501241363382 0.8243794414152
 0.6217169673764 0.845490216448
 0.5924862379525 0.8655705918074
 0.5624471387909 0.8845840075274
 0.5316139227647 0.9024889112437
 0.5 0.9192374599065
 0.4683860772353 0.9347736833484
 0.4375528612091 0.9490307795778
 0.4075137620475 0.9619269212257
 0.3782830326236 0.9733582973631
 0.3498758636618 0.9831864276118
 0.3223084948048 0.9912115156536
 0.2955983452928 0.9971008813453
 0.2697641689868 1
 1 0.2448262399462
 0.9971008813453 0.2697641689868
 0.9912115156536 0.2955983452928
 0.9831864276118 0.3223084948048
 0.9733582973631 0.3498758636618
 0.9619269212257 0.3782830326236
 0.9490307795778 0.4075137620475
 0.9347736833484 0.4375528612091
 0.9192374599065 0.4683860772353
 0.9024889112437 0.5
 0.8845840075274 0.5316139227647
 0.8655705918074 0.5624471387909
 0.845490216448 0.5924862379525
 0.8243794414152 0.6217169673764
 0.8022707825575 0.6501241363382
 0.7791934231547 0.6776915051952
 0.7551737600538 0.7044016547072
 0.7302358310132 0.7302358310132
 0.7044016547072 0.7551737600538
 0.6776915051952 0.7791934231547
 0.6501241363382 0.8022707825575
 0.6217169673764 0.8243794414152
 0.5924862379525 0.845490216448
 0.5624471387909 0.8655705918074
 0.5316139227647 0.8845840075274
 0.5 0.9024889112437
 0.4683860772353 0.9192374599065
 0.4375528612091 0.9347736833484
 0.4075137620475 0.9490307795778
 0.3782830326236 0.9619269212257
 0.3498758636618 0.9733582973631
 0.3223084948048 0.9831864276118
 0.2955983452928 0.9912115156536
 0.2697641689868 0.9971008813453
 0.2448262399462 1
 1 0.2208065768453
 0.9971008813453 0.2448262399462
 0.9912115156536 0.2697641689868
 0.9831864276118 0.2955983452928
 0.9733582973631 0.3223084948048
 0.9619269212257 0.3498758636618
 0.9490307795778 0.3782830326236
 0.9347736833484 0.4075137620475
 0.9192374599065 0.4375528612091
 0.9024889112437 0.4683860772353
 0.8845840075274 0.5
 0.8655705918074 0.5316139227647
 0.845490216448 0.5624471387909
 0.8243794414152 0.5924862379525
 0.8022707825575 0.6217169673764
 0.7791934231547 0.6501241363382
 0.7551737600538 0.6776915051952
 0.7302358310132 0.7044016547072
 0.7044016547072 0.7302358310132
 0.6776915051952 0.7551737600538
 0.6501241363382 0.7791934231547
 0.6217169673764 0.8022707825575
 0.5924862379525 0.8243794414152
 0.5624471387909 0.845490216448
 0.5316139227647 0.8655705918074
 0.5 0.8845840075274
 0.4683860772353 0.9024889112437
 0.4375528612091 0.9192374599065
 0.4075137620475 0.9347736833484
 0.3782830326236 0.9490307795778
 0.3498758636618 0.9619269212257
 0.3223084948048 0.9733582973631
 0.2955983452928 0.9831864276118
 0.2697641689868 0.9912115156536
 0.2448262399462 0.9971008813453
 0.2208065768453 1
 1 0.1977292174425
 0.9971008813453 0.2208065768453
 0.9912115156536 0.2448262399462
 0.9831864276118 0.2697641689868
 0.9733582973631 0.2955983452928
 0.9619269212257 0.3223084948048
 0.9490307795778 0.3498758636618
 0.9347736833484 0.3782830326236
 0.9192374599065 0.4075137620475
 0.9024889112437 0.4375528612091
 0.8845840075274 0.4683860772353
 0.8655705918074 0.5
 0.845490216448 0.5316139227647
 0.8243794414152 0.5624471387909
 0.8022707825575 0.5924862379525
 0.7791934231547 0.6217169673764
 0.7551737600538 0.6501241363382
 0.7302358310132 0.6776915051952
 0.7044016547072 0.7044016547072
 0.6776915051952 0.7302358310132
 0.6501241363382 0.7551737600538
 0.6217169673764 0.7791934231547
 0.5924862379525 0.8022707825575
 0.5624471387909 0.8243794414152
 0.5316139227647 0.845490216448
 0.5 0.8655705918074
 0.4683860772353 0.8845840075274
 0.4375528612091 0.9024889112437
 0.4075137620475 0.9192374599065
 0.3782830326236 0.9347736833484
 0.3498758636618 0.9490307795778
 0.3223084948048 0.9619269212257
 0.2955983452928 0.9733582973631
 0.2697641689868 0.9831864276118
 0.2448262399462 0.9912115156536
 0.2208065768453 0.9971008813453
 0.1977292174425 1
 1 0.1756205585848
 0.9971008813453 0.1977292174425
 0.9912115156536 0.2208065768453
 0.9831864276118 0.2448262399462
 0.9733582973631 0.2697641689868
 0.9619269212257 0.2955983452928
 0.9490307795778 0.3223084948048
 0.9347736833484 0.3498758636618
 0.9192374599065 0.3782830326236
 0.9024889112437 0.4075137620475
 0.8845840075274 0.4375528612091
 0.8655705918074 0.4683860772353
 0.845490216448 0.5
 0.8243794414152 0.5316139227647
 0.8022707825575 0.5624471387909
 0.7791934231547 0.5924862379525
 0.7551737600538 0.6217169673764
 0.7302358310132 0.6501241363382
 0.7044016547072 0.6776915051952
 0.6776915051952 0.7044016547072
 0.6501241363382 0.7302358310132
 0.6217169673764 0.7551737600538
 0.5924862379525 0.7791934231547
 0.5624471387909 0.8022707825575
 0.5316139227647 0.8243794414152
 0.5 0.845490216448
 0.4683860772353 0.8655705918074
 0.4375528612091 0.8845840075274
 0.4075137620475 0.9024889112437
 0.3782830326236 0.9192374599065
 0.3498758636618 0.9347736833484
 0.3223084948048 0.9490307795778
 0.2955983452928 0.9619269212257
 0.2697641689868 0.9733582973631
 0.2448262399462 0.9831864276118
 0.2208065768453 0.9912115156536
 0.1977292174425 0.9971008813453
 0.1756205585848 1
 1 0.154509783552
 0.9971008813453 0.1756205585848
 0.9912115156536 0.1977292174425
 0.9831864276118 0.2208065768453
 0.9733582973631 0.2448262399462
 0.9619269212257 0.2697641689868
 0.9490307795778 0.2955983452928
 0.9347736833484 0.3223084948048
 0.9192374599065 0.3498758636618
 0.9024889112437 0.3782830326236
 0.8845840075274 0.4075137620475
 0.8655705918074 0.4375528612091
 0.845490216448 0.4683860772353
 0.8243794414152 0.5
 0.8022707825575 0.5316139227647
 0.7791934231547 0.5624471387909
 0.7551737600538 0.5924862379525
 0.7302358310132 0.6217169673764
 0.7044016547072 0.6501241363382
 0.6776915051952 0.6776915051952
 0.6501241363382 0.7044016547072
 0.6217169673764 0.7302358310132
 0.5924862379525 0.7551737600538
 0.5624471387909 0.7791934231547
 0.5316139227647 0.8022707825575
 0.5 0.8243794414152
 0.4683860772353 0.845490216448
 0.4375528612091 0.8655705918074
 0.4075137620475 0.8845840075274
 0.3782830326236 0.9024889112437
 0.3498758636618 0.9192374599065
 0.3223084948048 0.9347736833484
 0.2955983452928 0.9490307795778
 0.2697641689868 0.9619269212257
 0.2448262399462 0.9733582973631
 0.2208065768453 0.9831864276118
 0.1977292174425 0.9912115156536
 0.1756205585848 0.9971008813453
 0.154509783552 1
 1 0.1344294081926
 0.9971008813453 0.154509783552
 0.9912115156536 0.1756205585848
 0.9831864276118 0.1977292174425
 0.9733582973631 0.2208065768453
 0.9619269212257 0.2448262399462
 0.9490307795778 0.2697641689868
 0.9347736833484 0.2955983452928
 0.9192374599065 0.3223084948048
 0.9024889112437 0.3498758636618
 0.8845840075274 0.3782830326236
 0.8655705918074 0.4075137620475
 0.845490216448 0.4375528612091
 0.8243794414152 0.4683860772353
 0.8022707825575 0.5
 0.7791934231547 0.5316139227647
 0.7551737600538 0.5624471387909
 0.7302358310132 0.5924862379525
 0.7044016547072 0.6217169673764
 0.6776915051952 0.6501241363382
 0.6501241363382 0.6776915051952
 0.6217169673764 0.7044016547072
 0.5924862379525 0.7302358310132
 0.5624471387909 0.7551737600538
 0.5316139227647 0.7791934231547
 0.5 0.8022707825575
 0.4683860772353 0.8243794414152
 0.4375528612091 0.845490216448
 0.4075137620475 0.8655705918074
 0.3782830326236 0.8845840075274
 0.3498758636618 0.9024889112437
 0.3223084948048 0.9192374599065
 0.2955983452928 0.9347736833484
 0.2697641689868 0.9490307795778
 0.2448262399462 0.9619269212257
 0.2208065768453 0.9733582973631
 0.1977292174425 0.9831864276118
 0.1756205585848 0.9912115156536
 0.154509783552 0.9971008813453
 0.1344294081926 1
 1 0.1154159924726
 0.9971008813453 0.1344294081926
 0.9912115156536 0.154509783552
 0.9831864276118 0.1756205585848
 0.9733582973631 0.1977292174425
 0.9619269212257 0.2208065768453
 0.9490307795778 0.2448262399462
 0.9347736833484 0.2697641689868
 0.9192374599065 0.2955983452928
 0.9024889112437 0.3223084948048
 0.8845840075274 0.3498758636618
 0.8655705918074 0.3782830326236
 0.845490216448 0.4075137620475
 0.8243794414152 0.4375528612091
 0.8022707825575 0.4683860772353
 0.7791934231547 0.5
 0.7551737600538 0.5316139227647
 0.7302358310132 0.5624471387909
 0.7044016547072 0.5924862379525
 0.6776915051952 0.6217169673764
 0.6501241363382 0.6501241363382
 0.6217169673764 0.6776915051952
 0.5924862379525 0.7044016547072
 0.5624471387909 0.7302358310132
 0.5316139227647 0.7551737600538
 0.5 0.7791934231547
 0.4683860772353 0.8022707825575
 0.4375528612091 0.8243794414152
 0.4075137620475 0.845490216448
 0.3782830326236 0.8655705918074
 0.3498758636618 0.8845840075274
 0.3223084948048 0.9024889112437
 0.2955983452928 0.9192374599065
 0.2697641689868 0.9347736833484
 0.2448262399462 0.9490307795778
 0.2208065768453 0.9619269212257
 0.1977292174425 0.9733582973631
 0.1756205585848 0.9831864276118
 0.154509783552 0.9912115156536
 0.1344294081926 0.9971008813453
 0.1154159924726 1
 1 0.09751108875632
 0.9971008813453 0.1154159924726
 0.9912115156536 0.1344294081926
 0.9831864276118 0.154509783552
 0.9733582973631 0.1756205585848
 0.9619269212257 0.1977292174425
 0.9490307795778 0.2208065768453
 0.9347736833484 0.2448262399462
 0.9192374599065 0.2697641689868
 0.9024889112437 0.2955983452928
 0.8845840075274 0.3223084948048
 0.8655705918074 0.3498758636618
 0.845490216448 0.3782830326236
 0.8243794414152 0.4075137620475
 0.8022707825575 0.4375528612091
 0.7791934231547 0.4683860772353
 0.7551737600538 0.5
 0.7302358310132 0.5316139227647
 0.7044016547072 0.5624471387909
 0.6776915051952 0.5924862379525
 0.6501241363382 0.6217169673764
 0.6217169673764 0.6501241363382
 0.5924862379525 0.6776915051952
 0.5624471387909 0.7044016547072
 0.5316139227647 0.7302358310132
 0.5 0.7551737600538
 0.4683860772353 0.7791934231547
 0.4375528612091 0.8022707825575
 0.4075137620475 0.8243794414152
 0.3782830326236 0.845490216448
 0.3498758636618 0.8655705918074
 0.3223084948048 0.8845840075274
 0.2955983452928 0.9024889112437
 0.2697641689868 0.9192374599065
 0.2448262399462 0.9347736833484
 0.2208065768453 0.9490307795778
 0.1977292174425 0.9619269212257
 0.1756205585848 0.9733582973631
 0.154509783552 0.9831864276118
 0.1344294081926 0.9912115156536
 0.1154159924726 0.9971008813453
 0.09751108875632 1
 1 0.08076254009346
 0.9971008813453 0.09751108875632
 0.9912115156536 0.1154159924726
 0.9831864276118 0.1344294081926
 0.9733582973631 0.154509783552
 0.9619269212257 0.1756205585848
 0.9490307795778 0.1977292174425
 0.9347736833484 0.2208065768453
 0.9192374599065 0.2448262399462
 0.9024889112437 0.2697641689868
 0.8845840075274 0.2955983452928
 0.8655705918074 0.3223084948048
 0.845490216448 0.3498758636618
 0.8243794414152 0.3782830326236
 0.8022707825575 0.4075137620475
 0.7791934231547 0.4375528612091
 0.7551737600538 0.4683860772353
 0.7302358310132 0.5
 0.7044016547072 0.5316139227647
 0.6776915051952 0.5624471387909
 0.6501241363382 0.5924862379525
 0.6217169673764 0.6217169673764
 0.5924862379525 0.6501241363382
 0.5624471387909 0.6776915051952
 0.5316139227647 0.7044016547072
 0.5 0.7302358310132
 0.4683860772353 0.7551737600538
 0.4375528612091 0.7791934231547
 0.4075137620475 0.8022707825575
 0.3782830326236 0.8243794414152
 0.3498758636618 0.845490216448
 0.3223084948048 0.8655705918074
 0.2955983452928 0.8845840075274
 0.2697641689868 0.9024889112437
 0.2448262399462 0.9192374599065
 0.2208065768453 0.9347736833484
 0.1977292174425 0.9490307795778
 0.1756205585848 0.9619269212257
 0.154509783552 0.9733582973631
 0.1344294081926 0.9831864276118
 0.1154159924726 0.9912115156536
 0.09751108875632 0.9971008813453
 0.08076254009346 1
 1 0.06522631665158
 0.9971008813453 0.08076254009346
 0.9912115156536 0.09751108875632
 0.9831864276118 0.1154159924726
 0.9733582973631 0.1344294081926
 0.9619269212257 0.154509783552
 0.9490307795778 0.1756205585848
 0.9347736833484 0.1977292174425
 0.9192374599065 0.2208065768453
 0.9024889112437 0.2448262399462
 0.8845840075274 0.2697641689868