VARIABLES = "x" "y"
ZONE T="InnerCells" SOLUTIONTIME=0 DATAPACKING=POINT N=6724 E=13122 ZONETYPE=FETRIANGLE
 0 0
 0 1.39737844840725e-05
 0 5.58951379362902e-05
 0 0.000125764060356653
 0 0.000223580551745161
 0 0.000349344612101814
 0 0.000503056241426612
 0 0.000684715439719555
 0 0.000894322206980643
 0 0.00113187654320988
 0 0.00139737844840725
 0 0.00169082792257278
 0 0.00201222496570645
 0 0.00236156957780826
 0 0.00273886175887822
 0 0.00314410150891632
 0 0.00357728882792257
 0 0.00403842371589697
 0 0.00452750617283951
 0 0.00504453619875019
 0 0.00558951379362902
 0 0.00616243895747599
 0 0.00676331169029111
 0 0.00739213199207438
 0 0.00804889986282579
 0 0.00873361530254534
 0 0.00944627831123304
 0 0.0101868888888889
 0 0.0109554470355129
 0 0.011751952751105
 0 0.0125764060356653
 0 0.0134288068891937
 0 0.0143091553116903
 0 0.015217451303155
 0 0.0161536948635879
 0 0.0171178859929889
 0 0.018110024691358
 0 0.0191301109586953
 0 0.0201781447950008
 0 0.0212541262002743
 0 0.0223580551745161
 0 0.0234829448254839
 0 0.0245868737997257
 0 0.0256628552049992
 0 0.0267108890413047
 0 0.027730975308642
 0 0.0287231140070111
 0 0.0296873051364121
 0 0.030623548696845
 0 0.0315318446883097
 0 0.0324121931108063
 0 0.0332645939643347
 0 0.034089047248895
 0 0.0348855529644871
 0 0.0356541111111111
 0 0.036394721688767
 0 0.0371073846974547
 0 0.0377921001371742
 0 0.0384488680079256
 0 0.0390776883097089
 0 0.039678561042524
 0 0.040251486206371
 0 0.0407964638012498
 0 0.0413134938271605
 0 0.041802576284103
 0 0.0422637111720774
 0 0.0426968984910837
 0 0.0431021382411218
 0 0.0434794304221917
 0 0.0438287750342936
 0 0.0441501720774272
 0 0.0444436215515927
 0 0.0447091234567901
 0 0.0449466777930194
 0 0.0451562845602804
 0 0.0453379437585734
 0 0.0454916553878982
 0 0.0456174194482548
 0 0.0457152359396433
 0 0.0457851048620637
 0 0.0458270262155159
 0 0.045841
 1.39737844840725e-05 0
 1.39737844840725e-05 1.39737844840725e-05
 1.39737844840725e-05 5.58951379362902e-05
 1.39737844840725e-05 0.000125764060356653
 1.39737844840725e-05 0.000223580551745161
 1.39737844840725e-05 0.000349344612101814
 1.39737844840725e-05 0.000503056241426612
 1.39737844840725e-05 0.000684715439719555
 1.39737844840725e-05 0.000894322206980643
 1.39737844840725e-05 0.00113187654320988
 1.39737844840725e-05 0.00139737844840725
 1.39737844840725e-05 0.00169082792257278
 1.39737844840725e-05 0.00201222496570645
 1.39737844840725e-05 0.00236156957780826
 1.39737844840725e-05 0.00273886175887822
 1.39737844840725e-05 0.00314410150891632
 1.39737844840725e-05 0.00357728882792257
 1.39737844840725e-05 0.00403842371589697
 1.39737844840725e-05 0.00452750617283951
 1.39737844840725e-05 0.00504453619875019
 1.39737844840725e-05 0.00558951379362902
 1.39737844840725e-05 0.00616243895747599
 1.39737844840725e-05 0.00676331169029111
 1.39737844840725e-05 0.00739213199207438
 1.39737844840725e-05 0.00804889986282579
 1.39737844840725e-05 0.00873361530254534
 1.39737844840725e-05 0.00944627831123304
 1.39737844840725e-05 0.0101868888888889
 1.39737844840725e-05 0.0109554470355129
 1.39737844840725e-05 0.011751952751105
 1.39737844840725e-05 0.0125764060356653
 1.39737844840725e-05 0.0134288068891937
 1.39737844840725e-05 0.0143091553116903
 1.39737844840725e-05 0.015217451303155
 1.39737844840725e-05 0.0161536948635879
 1.39737844840725e-05 0.0171178859929889
 1.39737844840725e-05 0.018110024691358
 1.39737844840725e-05 0.0191301109586953
 1.39737844840725e-05 0.0201781447950008
 1.39737844840725e-05 0.0212541262002743
 1.39737844840725e-05 0.0223580551745161
 1.39737844840725e-05 0.0234829448254839
 1.39737844840725e-05 0.0245868737997257
 1.39737844840725e-05 0.0256628552049992
 1.39737844840725e-05 0.0267108890413047
 1.39737844840725e-05 0.027730975308642
 1.39737844840725e-05 0.0287231140070111
 1.39737844840725e-05 0.0296873051364121
 1.39737844840725e-05 0.030623548696845
 1.39737844840725e-05 0.0315318446883097
 1.39737844840725e-05 0.0324121931108063
 1.39737844840725e-05 0.0332645939643347
 1.39737844840725e-05 0.034089047248895
 1.39737844840725e-05 0.0348855529644871
 1.39737844840725e-05 0.0356541111111111
 1.39737844840725e-05 0.036394721688767
 1.39737844840725e-05 0.0371073846974547
 1.39737844840725e-05 0.0377921001371742
 1.39737844840725e-05 0.0384488680079256
 1.39737844840725e-05 0.0390776883097089
 1.39737844840725e-05 0.039678561042524
 1.39737844840725e-05 0.040251486206371
 1.39737844840725e-05 0.0407964638012498
 1.39737844840725e-05 0.0413134938271605
 1.39737844840725e-05 0.041802576284103
 1.39737844840725e-05 0.0422637111720774
 1.39737844840725e-05 0.0426968984910837
 1.39737844840725e-05 0.0431021382411218
 1.39737844840725e-05 0.0434794304221917
 1.39737844840725e-05 0.0438287750342936
 1.39737844840725e-05 0.0441501720774272
 1.39737844840725e-05 0.0444436215515927
 1.39737844840725e-05 0.0447091234567901
 1.39737844840725e-05 0.0449466777930194
 1.39737844840725e-05 0.0451562845602804
 1.39737844840725e-05 0.0453379437585734
 1.39737844840725e-05 0.0454916553878982
 1.39737844840725e-05 0.0456174194482548
 1.39737844840725e-05 0.0457152359396433
 1.39737844840725e-05 0.0457851048620637
 1.39737844840725e-05 0.0458270262155159
 1.39737844840725e-05 0.045841
 5.58951379362902e-05 0
 5.58951379362902e-05 1.39737844840725e-05
 5.58951379362902e-05 5.58951379362902e-05
 5.58951379362902e-05 0.000125764060356653
 5.58951379362902e-05 0.000223580551745161
 5.58951379362902e-05 0.000349344612101814
 5.58951379362902e-05 0.000503056241426612
 5.58951379362902e-05 0.000684715439719555
 5.58951379362902e-05 0.000894322206980643
 5.58951379362902e-05 0.00113187654320988
 5.58951379362902e-05 0.00139737844840725
 5.58951379362902e-05 0.00169082792257278
 5.58951379362902e-05 0.00201222496570645
 5.58951379362902e-05 0.00236156957780826
 5.58951379362902e-05 0.00273886175887822
 5.58951379362902e-05 0.00314410150891632
 5.58951379362902e-05 0.00357728882792257
 5.58951379362902e-05 0.00403842371589697
 5.58951379362902e-05 0.00452750617283951
 5.58951379362902e-05 0.00504453619875019
 5.58951379362902e-05 0.00558951379362902
 5.58951379362902e-05 0.00616243895747599
 5.58951379362902e-05 0.00676331169029111
 5.58951379362902e-05 0.00739213199207438
 5.58951379362902e-05 0.00804889986282579
 5.58951379362902e-05 0.00873361530254534
 5.58951379362902e-05 0.00944627831123304
 5.58951379362902e-05 0.0101868888888889
 5.58951379362902e-05 0.0109554470355129
 5.58951379362902e-05 0.011751952751105
 5.58951379362902e-05 0.0125764060356653
 5.58951379362902e-05 0.0134288068891937
 5.58951379362902e-05 0.0143091553116903
 5.58951379362902e-05 0.015217451303155
 5.58951379362902e-05 0.0161536948635879
 5.58951379362902e-05 0.0171178859929889
 5.58951379362902e-05 0.018110024691358
 5.58951379362902e-05 0.0191301109586953
 5.58951379362902e-05 0.0201781447950008
 5.58951379362902e-05 0.0212541262002743
 5.58951379362902e-05 0.0223580551745161
 5.58951379362902e-05 0.0234829448254839
 5.58951379362902e-05 0.0245868737997257
 5.58951379362902e-05 0.0256628552049992
 5.58951379362902e-05 0.0267108890413047
 5.58951379362902e-05 0.027730975308642
 5.58951379362902e-05 0.0287231140070111
 5.58951379362902e-05 0.0296873051364121
 5.58951379362902e-05 0.030623548696845
 5.58951379362902e-05 0.0315318446883097
 5.58951379362902e-05 0.0324121931108063
 5.58951379362902e-05 0.0332645939643347
 5.58951379362902e-05 0.034089047248895
 5.58951379362902e-05 0.0348855529644871
 5.58951379362902e-05 0.0356541111111111
 5.58951379362902e-05 0.036394721688767
 5.58951379362902e-05 0.0371073846974547
 5.58951379362902e-05 0.0377921001371742
 5.58951379362902e-05 0.0384488680079256
 5.58951379362902e-05 0.0390776883097089
 5.58951379362902e-05 0.039678561042524
 5.58951379362902e-05 0.040251486206371
 5.58951379362902e-05 0.0407964638012498
 5.58951379362902e-05 0.0413134938271605
 5.58951379362902e-05 0.041802576284103
 5.58951379362902e-05 0.0422637111720774
 5.58951379362902e-05 0.0426968984910837
 5.58951379362902e-05 0.0431021382411218
 5.58951379362902e-05 0.0434794304221917
 5.58951379362902e-05 0.0438287750342936
 5.58951379362902e-05 0.0441501720774272
 5.58951379362902e-05 0.0444436215515927
 5.58951379362902e-05 0.0447091234567901
 5.58951379362902e-05 0.0449466777930194
 5.58951379362902e-05 0.0451562845602804
 5.58951379362902e-05 0.0453379437585734
 5.58951379362902e-05 0.0454916553878982
 5.58951379362902e-05 0.0456174194482548
 5.58951379362902e-05 0.0457152359396433
 5.58951379362902e-05 0.0457851048620637
 5.58951379362902e-05 0.0458270262155159
 5.58951379362902e-05 0.045841
 0.000125764060356653 0
 0.000125764060356653 1.39737844840725e-05
 0.000125764060356653 5.58951379362902e-05
 0.000125764060356653 0.000125764060356653
 0.000125764060356653 0.000223580551745161
 0.000125764060356653 0.000349344612101814
 0.000125764060356653 0.000503056241426612
 0.000125764060356653 0.000684715439719555
 0.000125764060356653 0.000894322206980643
 0.000125764060356653 0.00113187654320988
 0.000125764060356653 0.00139737844840725
 0.000125764060356653 0.00169082792257278
 0.000125764060356653 0.00201222496570645
 0.000125764060356653 0.00236156957780826
 0.000125764060356653 0.00273886175887822
 0.000125764060356653 0.00314410150891632
 0.000125764060356653 0.00357728882792257
 0.000125764060356653 0.00403842371589697
 0.000125764060356653 0.00452750617283951
 0.000125764060356653 0.00504453619875019
 0.000125764060356653 0.00558951379362902
 0.000125764060356653 0.00616243895747599
 0.000125764060356653 0.00676331169029111
 0.000125764060356653 0.00739213199207438
 0.000125764060356653 0.00804889986282579
 0.000125764060356653 0.00873361530254534
 0.000125764060356653 0.00944627831123304
 0.000125764060356653 0.0101868888888889
 0.000125764060356653 0.0109554470355129
 0.000125764060356653 0.011751952751105
 0.000125764060356653 0.0125764060356653
 0.000125764060356653 0.0134288068891937
 0.000125764060356653 0.0143091553116903
 0.000125764060356653 0.015217451303155
 0.000125764060356653 0.0161536948635879
 0.000125764060356653 0.0171178859929889
 0.000125764060356653 0.018110024691358
 0.000125764060356653 0.0191301109586953
 0.000125764060356653 0.0201781447950008
 0.000125764060356653 0.0212541262002743
 0.000125764060356653 0.0223580551745161
 0.000125764060356653 0.0234829448254839
 0.000125764060356653 0.0245868737997257
 0.000125764060356653 0.0256628552049992
 0.000125764060356653 0.0267108890413047
 0.000125764060356653 0.027730975308642
 0.000125764060356653 0.0287231140070111
 0.000125764060356653 0.0296873051364121
 0.000125764060356653 0.030623548696845
 0.000125764060356653 0.0315318446883097
 0.000125764060356653 0.0324121931108063
 0.000125764060356653 0.0332645939643347
 0.000125764060356653 0.034089047248895
 0.000125764060356653 0.0348855529644871
 0.000125764060356653 0.0356541111111111
 0.000125764060356653 0.036394721688767
 0.000125764060356653 0.0371073846974547
 0.000125764060356653 0.0377921001371742
 0.000125764060356653 0.0384488680079256
 0.000125764060356653 0.0390776883097089
 0.000125764060356653 0.039678561042524
 0.000125764060356653 0.040251486206371
 0.000125764060356653 0.0407964638012498
 0.000125764060356653 0.0413134938271605
 0.000125764060356653 0.041802576284103
 0.000125764060356653 0.0422637111720774
 0.000125764060356653 0.0426968984910837
 0.000125764060356653 0.0431021382411218
 0.000125764060356653 0.0434794304221917
 0.000125764060356653 0.0438287750342936
 0.000125764060356653 0.0441501720774272
 0.000125764060356653 0.0444436215515927
 0.000125764060356653 0.0447091234567901
 0.000125764060356653 0.0449466777930194
 0.000125764060356653 0.0451562845602804
 0.000125764060356653 0.0453379437585734
 0.000125764060356653 0.0454916553878982
 0.000125764060356653 0.0456174194482548
 0.000125764060356653 0.0457152359396433
 0.000125764060356653 0.0457851048620637
 0.000125764060356653 0.0458270262155159
 0.000125764060356653 0.045841
 0.000223580551745161 0
 0.000223580551745161 1.39737844840725e-05
 0.000223580551745161 5.58951379362902e-05
 0.000223580551745161 0.000125764060356653
 0.000223580551745161 0.000223580551745161
 0.000223580551745161 0.000349344612101814
 0.000223580551745161 0.000503056241426612
 0.000223580551745161 0.000684715439719555
 0.000223580551745161 0.000894322206980643
 0.000223580551745161 0.00113187654320988
 0.000223580551745161 0.00139737844840725
 0.000223580551745161 0.00169082792257278
 0.000223580551745161 0.00201222496570645
 0.000223580551745161 0.00236156957780826
 0.000223580551745161 0.00273886175887822
 0.000223580551745161 0.00314410150891632
 0.000223580551745161 0.00357728882792257
 0.000223580551745161 0.00403842371589697
 0.000223580551745161 0.00452750617283951
 0.000223580551745161 0.00504453619875019
 0.000223580551745161 0.00558951379362902
 0.000223580551745161 0.00616243895747599
 0.000223580551745161 0.00676331169029111
 0.000223580551745161 0.00739213199207438
 0.000223580551745161 0.00804889986282579
 0.000223580551745161 0.00873361530254534
 0.000223580551745161 0.00944627831123304
 0.000223580551745161 0.0101868888888889
 0.000223580551745161 0.0109554470355129
 0.000223580551745161 0.011751952751105
 0.000223580551745161 0.0125764060356653
 0.000223580551745161 0.0134288068891937
 0.000223580551745161 0.0143091553116903
 0.000223580551745161 0.015217451303155
 0.000223580551745161 0.0161536948635879
 0.000223580551745161 0.0171178859929889
 0.000223580551745161 0.018110024691358
 0.000223580551745161 0.0191301109586953
 0.000223580551745161 0.0201781447950008
 0.000223580551745161 0.0212541262002743
 0.000223580551745161 0.0223580551745161
 0.000223580551745161 0.0234829448254839
 0.000223580551745161 0.0245868737997257
 0.000223580551745161 0.0256628552049992
 0.000223580551745161 0.0267108890413047
 0.000223580551745161 0.027730975308642
 0.000223580551745161 0.0287231140070111
 0.000223580551745161 0.0296873051364121
 0.000223580551745161 0.030623548696845
 0.000223580551745161 0.0315318446883097
 0.000223580551745161 0.0324121931108063
 0.000223580551745161 0.0332645939643347
 0.000223580551745161 0.034089047248895
 0.000223580551745161 0.0348855529644871
 0.000223580551745161 0.0356541111111111
 0.000223580551745161 0.036394721688767
 0.000223580551745161 0.0371073846974547
 0.000223580551745161 0.0377921001371742
 0.000223580551745161 0.0384488680079256
 0.000223580551745161 0.0390776883097089
 0.000223580551745161 0.039678561042524
 0.000223580551745161 0.040251486206371
 0.000223580551745161 0.0407964638012498
 0.000223580551745161 0.0413134938271605
 0.000223580551745161 0.041802576284103
 0.000223580551745161 0.0422637111720774
 0.000223580551745161 0.0426968984910837
 0.000223580551745161 0.0431021382411218
 0.000223580551745161 0.0434794304221917
 0.000223580551745161 0.0438287750342936
 0.000223580551745161 0.0441501720774272
 0.000223580551745161 0.0444436215515927
 0.000223580551745161 0.0447091234567901
 0.000223580551745161 0.0449466777930194
 0.000223580551745161 0.0451562845602804
 0.000223580551745161 0.0453379437585734
 0.000223580551745161 0.0454916553878982
 0.000223580551745161 0.0456174194482548
 0.000223580551745161 0.0457152359396433
 0.000223580551745161 0.0457851048620637
 0.000223580551745161 0.0458270262155159
 0.000223580551745161 0.045841
 0.000349344612101814 0
 0.000349344612101814 1.39737844840725e-05
 0.000349344612101814 5.58951379362902e-05
 0.000349344612101814 0.000125764060356653
 0.000349344612101814 0.000223580551745161
 0.000349344612101814 0.000349344612101814
 0.000349344612101814 0.000503056241426612
 0.000349344612101814 0.000684715439719555
 0.000349344612101814 0.000894322206980643
 0.000349344612101814 0.00113187654320988
 0.000349344612101814 0.00139737844840725
 0.000349344612101814 0.00169082792257278
 0.000349344612101814 0.00201222496570645
 0.000349344612101814 0.00236156957780826
 0.000349344612101814 0.00273886175887822
 0.000349344612101814 0.00314410150891632
 0.000349344612101814 0.00357728882792257
 0.000349344612101814 0.00403842371589697
 0.000349344612101814 0.00452750617283951
 0.000349344612101814 0.00504453619875019
 0.000349344612101814 0.00558951379362902
 0.000349344612101814 0.00616243895747599
 0.000349344612101814 0.00676331169029111
 0.000349344612101814 0.00739213199207438
 0.000349344612101814 0.00804889986282579
 0.000349344612101814 0.00873361530254534
 0.000349344612101814 0.00944627831123304
 0.000349344612101814 0.0101868888888889
 0.000349344612101814 0.0109554470355129
 0.000349344612101814 0.011751952751105
 0.000349344612101814 0.0125764060356653
 0.000349344612101814 0.0134288068891937
 0.000349344612101814 0.0143091553116903
 0.000349344612101814 0.015217451303155
 0.000349344612101814 0.0161536948635879
 0.000349344612101814 0.0171178859929889
 0.000349344612101814 0.018110024691358
 0.000349344612101814 0.0191301109586953
 0.000349344612101814 0.0201781447950008
 0.000349344612101814 0.0212541262002743
 0.000349344612101814 0.0223580551745161
 0.000349344612101814 0.0234829448254839
 0.000349344612101814 0.0245868737997257
 0.000349344612101814 0.0256628552049992
 0.000349344612101814 0.0267108890413047
 0.000349344612101814 0.027730975308642
 0.000349344612101814 0.0287231140070111
 0.000349344612101814 0.0296873051364121
 0.000349344612101814 0.030623548696845
 0.000349344612101814 0.0315318446883097
 0.000349344612101814 0.0324121931108063
 0.000349344612101814 0.0332645939643347
 0.000349344612101814 0.034089047248895
 0.000349344612101814 0.0348855529644871
 0.000349344612101814 0.0356541111111111
 0.000349344612101814 0.036394721688767
 0.000349344612101814 0.0371073846974547
 0.000349344612101814 0.0377921001371742
 0.000349344612101814 0.0384488680079256
 0.000349344612101814 0.0390776883097089
 0.000349344612101814 0.039678561042524
 0.000349344612101814 0.040251486206371
 0.000349344612101814 0.0407964638012498
 0.000349344612101814 0.0413134938271605
 0.000349344612101814 0.041802576284103
 0.000349344612101814 0.0422637111720774
 0.000349344612101814 0.0426968984910837
 0.000349344612101814 0.0431021382411218
 0.000349344612101814 0.0434794304221917
 0.000349344612101814 0.0438287750342936
 0.000349344612101814 0.0441501720774272
 0.000349344612101814 0.0444436215515927
 0.000349344612101814 0.0447091234567901
 0.000349344612101814 0.0449466777930194
 0.000349344612101814 0.0451562845602804
 0.000349344612101814 0.0453379437585734
 0.000349344612101814 0.0454916553878982
 0.000349344612101814 0.0456174194482548
 0.000349344612101814 0.0457152359396433
 0.000349344612101814 0.0457851048620637
 0.000349344612101814 0.0458270262155159
 0.000349344612101814 0.045841
 0.000503056241426612 0
 0.000503056241426612 1.39737844840725e-05
 0.000503056241426612 5.58951379362902e-05
 0.000503056241426612 0.000125764060356653
 0.000503056241426612 0.000223580551745161
 0.000503056241426612 0.000349344612101814
 0.000503056241426612 0.000503056241426612
 0.000503056241426612 0.000684715439719555
 0.000503056241426612 0.000894322206980643
 0.000503056241426612 0.00113187654320988
 0.000503056241426612 0.00139737844840725
 0.000503056241426612 0.00169082792257278
 0.000503056241426612 0.00201222496570645
 0.000503056241426612 0.00236156957780826
 0.000503056241426612 0.00273886175887822
 0.000503056241426612 0.00314410150891632
 0.000503056241426612 0.00357728882792257
 0.000503056241426612 0.00403842371589697
 0.000503056241426612 0.00452750617283951
 0.000503056241426612 0.00504453619875019
 0.000503056241426612 0.00558951379362902
 0.000503056241426612 0.00616243895747599
 0.000503056241426612 0.00676331169029111
 0.000503056241426612 0.00739213199207438
 0.000503056241426612 0.00804889986282579
 0.000503056241426612 0.00873361530254534
 0.000503056241426612 0.00944627831123304
 0.000503056241426612 0.0101868888888889
 0.000503056241426612 0.0109554470355129
 0.000503056241426612 0.011751952751105
 0.000503056241426612 0.0125764060356653
 0.000503056241426612 0.0134288068891937
 0.000503056241426612 0.0143091553116903
 0.000503056241426612 0.015217451303155
 0.000503056241426612 0.0161536948635879
 0.000503056241426612 0.0171178859929889
 0.000503056241426612 0.018110024691358
 0.000503056241426612 0.0191301109586953
 0.000503056241426612 0.0201781447950008
 0.000503056241426612 0.0212541262002743
 0.000503056241426612 0.0223580551745161
 0.000503056241426612 0.0234829448254839
 0.000503056241426612 0.0245868737997257
 0.000503056241426612 0.0256628552049992
 0.000503056241426612 0.0267108890413047
 0.000503056241426612 0.027730975308642
 0.000503056241426612 0.0287231140070111
 0.000503056241426612 0.0296873051364121
 0.000503056241426612 0.030623548696845
 0.000503056241426612 0.0315318446883097
 0.000503056241426612 0.0324121931108063
 0.000503056241426612 0.0332645939643347
 0.000503056241426612 0.034089047248895
 0.000503056241426612 0.0348855529644871
 0.000503056241426612 0.0356541111111111
 0.000503056241426612 0.036394721688767
 0.000503056241426612 0.0371073846974547
 0.000503056241426612 0.0377921001371742
 0.000503056241426612 0.0384488680079256
 0.000503056241426612 0.0390776883097089
 0.000503056241426612 0.039678561042524
 0.000503056241426612 0.040251486206371
 0.000503056241426612 0.0407964638012498
 0.000503056241426612 0.0413134938271605
 0.000503056241426612 0.041802576284103
 0.000503056241426612 0.0422637111720774
 0.000503056241426612 0.0426968984910837
 0.000503056241426612 0.0431021382411218
 0.000503056241426612 0.0434794304221917
 0.000503056241426612 0.0438287750342936
 0.000503056241426612 0.0441501720774272
 0.000503056241426612 0.0444436215515927
 0.000503056241426612 0.0447091234567901
 0.000503056241426612 0.0449466777930194
 0.000503056241426612 0.0451562845602804
 0.000503056241426612 0.0453379437585734
 0.000503056241426612 0.0454916553878982
 0.000503056241426612 0.0456174194482548
 0.000503056241426612 0.0457152359396433
 0.000503056241426612 0.0457851048620637
 0.000503056241426612 0.0458270262155159
 0.000503056241426612 0.045841
 0.000684715439719555 0
 0.000684715439719555 1.39737844840725e-05
 0.000684715439719555 5.58951379362902e-05
 0.000684715439719555 0.000125764060356653
 0.000684715439719555 0.000223580551745161
 0.000684715439719555 0.000349344612101814
 0.000684715439719555 0.000503056241426612
 0.000684715439719555 0.000684715439719555
 0.000684715439719555 0.000894322206980643
 0.000684715439719555 0.00113187654320988
 0.000684715439719555 0.00139737844840725
 0.000684715439719555 0.00169082792257278
 0.000684715439719555 0.00201222496570645
 0.000684715439719555 0.00236156957780826
 0.000684715439719555 0.00273886175887822
 0.000684715439719555 0.00314410150891632
 0.000684715439719555 0.00357728882792257
 0.000684715439719555 0.00403842371589697
 0.000684715439719555 0.00452750617283951
 0.000684715439719555 0.00504453619875019
 0.000684715439719555 0.00558951379362902
 0.000684715439719555 0.00616243895747599
 0.000684715439719555 0.00676331169029111
 0.000684715439719555 0.00739213199207438
 0.000684715439719555 0.00804889986282579
 0.000684715439719555 0.00873361530254534
 0.000684715439719555 0.00944627831123304
 0.000684715439719555 0.0101868888888889
 0.000684715439719555 0.0109554470355129
 0.000684715439719555 0.011751952751105
 0.000684715439719555 0.0125764060356653
 0.000684715439719555 0.0134288068891937
 0.000684715439719555 0.0143091553116903
 0.000684715439719555 0.015217451303155
 0.000684715439719555 0.0161536948635879
 0.000684715439719555 0.0171178859929889
 0.000684715439719555 0.018110024691358
 0.000684715439719555 0.0191301109586953
 0.000684715439719555 0.0201781447950008
 0.000684715439719555 0.0212541262002743
 0.000684715439719555 0.0223580551745161
 0.000684715439719555 0.0234829448254839
 0.000684715439719555 0.0245868737997257
 0.000684715439719555 0.0256628552049992
 0.000684715439719555 0.0267108890413047
 0.000684715439719555 0.027730975308642
 0.000684715439719555 0.0287231140070111
 0.000684715439719555 0.0296873051364121
 0.000684715439719555 0.030623548696845
 0.000684715439719555 0.0315318446883097
 0.000684715439719555 0.0324121931108063
 0.000684715439719555 0.0332645939643347
 0.000684715439719555 0.034089047248895
 0.000684715439719555 0.0348855529644871
 0.000684715439719555 0.0356541111111111
 0.000684715439719555 0.036394721688767
 0.000684715439719555 0.0371073846974547
 0.000684715439719555 0.0377921001371742
 0.000684715439719555 0.0384488680079256
 0.000684715439719555 0.0390776883097089
 0.000684715439719555 0.039678561042524
 0.000684715439719555 0.040251486206371
 0.000684715439719555 0.0407964638012498
 0.000684715439719555 0.0413134938271605
 0.000684715439719555 0.041802576284103
 0.000684715439719555 0.0422637111720774
 0.000684715439719555 0.0426968984910837
 0.000684715439719555 0.0431021382411218
 0.000684715439719555 0.0434794304221917
 0.000684715439719555 0.0438287750342936
 0.000684715439719555 0.0441501720774272
 0.000684715439719555 0.0444436215515927
 0.000684715439719555 0.0447091234567901
 0.000684715439719555 0.0449466777930194
 0.000684715439719555 0.0451562845602804
 0.000684715439719555 0.0453379437585734
 0.000684715439719555 0.0454916553878982
 0.000684715439719555 0.0456174194482548
 0.000684715439719555 0.0457152359396433
 0.000684715439719555 0.0457851048620637
 0.000684715439719555 0.0458270262155159
 0.000684715439719555 0.045841
 0.000894322206980643 0
 0.000894322206980643 1.39737844840725e-05
 0.000894322206980643 5.58951379362902e-05
 0.000894322206980643 0.000125764060356653
 0.000894322206980643 0.000223580551745161
 0.000894322206980643 0.000349344612101814
 0.000894322206980643 0.000503056241426612
 0.000894322206980643 0.000684715439719555
 0.000894322206980643 0.000894322206980643
 0.000894322206980643 0.00113187654320988
 0.000894322206980643 0.00139737844840725
 0.000894322206980643 0.00169082792257278
 0.000894322206980643 0.00201222496570645
 0.000894322206980643 0.00236156957780826
 0.000894322206980643 0.00273886175887822
 0.000894322206980643 0.00314410150891632
 0.000894322206980643 0.00357728882792257
 0.000894322206980643 0.00403842371589697
 0.000894322206980643 0.00452750617283951
 0.000894322206980643 0.00504453619875019
 0.000894322206980643 0.00558951379362902
 0.000894322206980643 0.00616243895747599
 0.000894322206980643 0.00676331169029111
 0.000894322206980643 0.00739213199207438
 0.000894322206980643 0.00804889986282579
 0.000894322206980643 0.00873361530254534
 0.000894322206980643 0.00944627831123304
 0.000894322206980643 0.0101868888888889
 0.000894322206980643 0.0109554470355129
 0.000894322206980643 0.011751952751105
 0.000894322206980643 0.0125764060356653
 0.000894322206980643 0.0134288068891937
 0.000894322206980643 0.0143091553116903
 0.000894322206980643 0.015217451303155
 0.000894322206980643 0.0161536948635879
 0.000894322206980643 0.0171178859929889
 0.000894322206980643 0.018110024691358
 0.000894322206980643 0.0191301109586953
 0.000894322206980643 0.0201781447950008
 0.000894322206980643 0.0212541262002743
 0.000894322206980643 0.0223580551745161
 0.000894322206980643 0.0234829448254839
 0.000894322206980643 0.0245868737997257
 0.000894322206980643 0.0256628552049992
 0.000894322206980643 0.0267108890413047
 0.000894322206980643 0.027730975308642
 0.000894322206980643 0.0287231140070111
 0.000894322206980643 0.0296873051364121
 0.000894322206980643 0.030623548696845
 0.000894322206980643 0.0315318446883097
 0.000894322206980643 0.0324121931108063
 0.000894322206980643 0.0332645939643347
 0.000894322206980643 0.034089047248895
 0.000894322206980643 0.0348855529644871
 0.000894322206980643 0.0356541111111111
 0.000894322206980643 0.036394721688767
 0.000894322206980643 0.0371073846974547
 0.000894322206980643 0.0377921001371742
 0.000894322206980643 0.0384488680079256
 0.000894322206980643 0.0390776883097089
 0.000894322206980643 0.039678561042524
 0.000894322206980643 0.040251486206371
 0.000894322206980643 0.0407964638012498
 0.000894322206980643 0.0413134938271605
 0.000894322206980643 0.041802576284103
 0.000894322206980643 0.0422637111720774
 0.000894322206980643 0.0426968984910837
 0.000894322206980643 0.0431021382411218
 0.000894322206980643 0.0434794304221917
 0.000894322206980643 0.0438287750342936
 0.000894322206980643 0.0441501720774272
 0.000894322206980643 0.0444436215515927
 0.000894322206980643 0.0447091234567901
 0.000894322206980643 0.0449466777930194
 0.000894322206980643 0.0451562845602804
 0.000894322206980643 0.0453379437585734
 0.000894322206980643 0.0454916553878982
 0.000894322206980643 0.0456174194482548
 0.000894322206980643 0.0457152359396433
 0.000894322206980643 0.0457851048620637
 0.000894322206980643 0.0458270262155159
 0.000894322206980643 0.045841
 0.00113187654320988 0
 0.00113187654320988 1.39737844840725e-05
 0.00113187654320988 5.58951379362902e-05
 0.00113187654320988 0.000125764060356653
 0.00113187654320988 0.000223580551745161
 0.00113187654320988 0.000349344612101814
 0.00113187654320988 0.000503056241426612
 0.00113187654320988 0.000684715439719555
 0.00113187654320988 0.000894322206980643
 0.00113187654320988 0.00113187654320988
 0.00113187654320988 0.00139737844840725
 0.00113187654320988 0.00169082792257278
 0.00113187654320988 0.00201222496570645
 0.00113187654320988 0.00236156957780826
 0.00113187654320988 0.00273886175887822
 0.00113187654320988 0.00314410150891632
 0.00113187654320988 0.00357728882792257
 0.00113187654320988 0.00403842371589697
 0.00113187654320988 0.00452750617283951
 0.00113187654320988 0.00504453619875019
 0.00113187654320988 0.00558951379362902
 0.00113187654320988 0.00616243895747599
 0.00113187654320988 0.00676331169029111
 0.00113187654320988 0.00739213199207438
 0.00113187654320988 0.00804889986282579
 0.00113187654320988 0.00873361530254534
 0.00113187654320988 0.00944627831123304
 0.00113187654320988 0.0101868888888889
 0.00113187654320988 0.0109554470355129
 0.00113187654320988 0.011751952751105