VARIABLES = "x" "y"
ZONE T="InnerCells" SOLUTIONTIME=0 DATAPACKING=POINT N=3013 E=5752 ZONETYPE=FETRIANGLE
 0 0
 0 0.000653
 0 0.001405
 0 0.002269
 0 0.003262
 0 0.004405
 0 0.005719
 0 0.00723
 0 0.008967
 0 0.010966
 0.000653 0
 0 0.013264
 0 0.015907
 0.00083 0.00083
 0.000801 0.001837
 0 0.018946
 0.00092 0.002766
 0 0.022442
 0.001059 0.003834
 0 0.026461
 0.001405 0
 0.001217 0.005062
 0 0.031083
 0.0014 0.006475
 0.001837 0.000801
 0 0.036399
 0.00161 0.008099
 0.001997 0.001997
 0 0.042512
 0.002088 0.003157
 0.002269 0
 0.001852 0.009967
 0 0.049543
 0.002401 0.004285
 0.002129 0.012115
 0.002766 0.00092
 0 0.057627
 0.002761 0.005581
 0.002449 0.014586
 0.003262 0
 0.003157 0.002088
 0 0.066925
 0.003175 0.007071
 0.003438 0.003438
 0.002816 0.017427
 0.003834 0.001059
 0 0.077617
 0.003652 0.008784
 0.004405 0
 0.004285 0.002401
 0.003289 0.022442
 0.004281 0.004281
 0.003289 0.026461
 0 0.089912
 0.0042 0.010755
 0.003289 0.031083
 0.004636 0.005862
 0.005062 0.001217
 0.003289 0.036399
 0 0.104052
 0.00483 0.013022
 0.003289 0.042512
 0.005331 0.007394
 0.005719 0
 0.005581 0.002761
 0.003289 0.049543
 0.005862 0.004636
 0 0.120314
 0.003289 0.057627
 0.005555 0.015628
 0.006475 0.0014
 0.006131 0.009156
 0.003289 0.066925
 0.00601 0.019305
 0.00723 0
 0.007071 0.003175
 0 0.139014
 0.003289 0.077617
 0.007051 0.011184
 0.007394 0.005331
 0.007575 0.007575
 0.003289 0.089912
 0.008099 0.00161
 0 0.160519
 0.003289 0.104052
 0.008108 0.013514
 0.007488 0.026461
 0.008967 0
 0.008784 0.003652
 0.007488 0.031083
 0.008063 0.021658
 0.007488 0.036399
 0.009156 0.006131
 0.009038 0.009038
 0.003289 0.120314
 0 0.185251
 0.007488 0.042512
 0.009967 0.001852
 0.007488 0.049543
 0.007488 0.057627
 0.003289 0.139014
 0.010018 0.017084
 0.010966 0
 0.010755 0.0042
 0.007488 0.066925
 0 0.213691
 0.010721 0.010721
 0.011184 0.007051
 0.007488 0.077617
 0.003289 0.160519
 0.007488 0.089912
 0.012115 0.002129
 0 0.246398
 0.007488 0.104052
 0.003289 0.185251
 0.013264 0
 0.013022 0.00483
 0.007488 0.120314
 0.0122 0.031083
 0.013514 0.008108
 0.0122 0.036399
 0.0122 0.042512
 0.003289 0.213691
 0.013625 0.020509
 0.014586 0.002449
 0.014023 0.014023
 0.007487 0.139014
 0.0122 0.049543
 0 0.284011
 0.01382 0.026184
 0.0122 0.057627
 0.0122 0.066925
 0.007487 0.160519
 0.015907 0
 0.015628 0.005555
 0.003289 0.246398
 0.012199 0.077617
 0.012199 0.089912
 0 0.327266
 0.007487 0.185251
 0.017427 0.002816
 0.017084 0.010018
 0.012199 0.104052
 0.003289 0.284011
 0.012199 0.120314
 0.007487 0.213691
 0.018946 0
 0.017383 0.031084
 0.017382 0.0364
 0.012199 0.139014
 0.017382 0.042512
 0.019305 0.00601
 0 0.37701
 0.017382 0.049543
 0.007487 0.246398
 0.017382 0.057627
 0.003289 0.327266
 0.012199 0.160519
 0.019638 0.019638
 0.017382 0.066925
 0.019628 0.025816
 0.020509 0.013625
 0.017381 0.077617
 0.012199 0.185251
 0.021658 0.008063
 0.017381 0.089912
 0.007487 0.284011
 0.022442 0
 0.022442 0.003289
 0 0.434214
 0.017381 0.104052
 0.003289 0.37701
 0.012199 0.213691
 0.017381 0.120314
 0.023232 0.023232
 0.007487 0.327266
 0.017381 0.139014
 0.02303 0.0364
 0.012199 0.246398
 0.02303 0.042512
 0.023694 0.030037
 0.02303 0.049543
 0.017381 0.160519
 0.003289 0.434214
 0.02303 0.057627
 0 0.5
 0.026461 0
 0.02303 0.066925
 0.026461 0.003289
 0.025816 0.019628
 0.026461 0.007488
 0.026184 0.01382
 0.012199 0.284011
 0.017381 0.185251
 0.023029 0.077617
 0.007487 0.37701
 0.023029 0.089912
 0.023029 0.104052
 0.017381 0.213691
 0.023029 0.120314
 0.012199 0.327266
 0.003289 0.5
 0 0.565786
 0.007487 0.434214
 0.017381 0.246398
 0.023028 0.139014
 0.029042 0.033812
 0.031083 0
 0.031083 0.003289
 0.030037 0.023694
 0.029157 0.042512
 0.023028 0.160519
 0.031083 0.007488
 0.031083 0.0122
 0.029157 0.049543
 0.012199 0.37701
 0.031084 0.017383
 0.029157 0.057627
 0.017381 0.284011
 0 0.62299
 0.029156 0.066926
 0.023028 0.185251
 0.003289 0.565786
 0.029155 0.077618
 0.007487 0.5
 0.029155 0.089912
 0.023028 0.213691
 0.017381 0.327266
 0.029155 0.104052
 0.012199 0.434214
 0.033094 0.035584
 0 0.672733
 0.029155 0.120314
 0.003289 0.62299
 0.023028 0.246398
 0.036399 0
 0.029154 0.139014
 0.036399 0.003289
 0.036399 0.007488
 0.036399 0.0122
 0.017381 0.37701
 0.007487 0.565786
 0.0364 0.017382
 0 0.715989
 0.029154 0.160519
 0.0364 0.02303
 0.036213 0.031233
 0.023028 0.284011
 0.035786 0.042512
 0.035786 0.049543
 0.012199 0.5
 0.003289 0.672733
 0.035786 0.057627
 0.029154 0.185251
 0.035786 0.066926
 0 0.753602
 0.035784 0.077618
 0.01738 0.434214
 0.007487 0.62299
 0.023028 0.327266
 0.029154 0.213691
 0.035784 0.089912
 0.003289 0.715989
 0 0.786309
 0.035784 0.104052
 0.012199 0.565786
 0.029154 0.246398
 0.035784 0.120314
 0.042512 0
 0.042512 0.003289
 0 0.814749
 0.007487 0.672733
 0.003289 0.753602
 0.023028 0.37701
 0.042512 0.007488
 0.035783 0.139014
 0.042512 0.0122
 0.042512 0.017382
 0.01738 0.5
 0.042512 0.02303
 0 0.839481
 0.029154 0.284011
 0.042512 0.029157
 0.035782 0.160519
 0.042512 0.035786
 0.003289 0.786309
 0.012199 0.62299
 0.007487 0.715989
 0 0.860986
 0.035782 0.185251
 0.042952 0.049543
 0.023028 0.434214
 0.042952 0.057628
 0.003289 0.814749
 0 0.879686
 0.029154 0.327266
 0.042951 0.066927
 0 0.895948
 0.035782 0.213691
 0.007487 0.753602
 0.042949 0.077619
 0.01738 0.565786
 0.003289 0.839481
 0.012199 0.672733
 0.042949 0.089912
 0 0.910088
 0 0.922384
 0.042949 0.104052
 0.003289 0.860986
 0.035782 0.246398
 0.007487 0.786309
 0 0.933076
 0.029154 0.37701
 0.023028 0.5
 0.042949 0.120315
 0 0.942373
 0.003289 0.879686
 0.049543 0
 0.049543 0.003289
 0.012199 0.715989
 0 0.950458
 0.049543 0.007488
 0.01738 0.62299
 0 0.957488
 0.049543 0.0122
 0.007488 0.814749
 0.042947 0.139015
 0.003289 0.895948
 0.049543 0.017382
 0 0.963601
 0.035782 0.284011
 0.049543 0.02303
 0 0.968917
 0.003289 0.910088
 0 0.973539
 0.049543 0.029157
 0 0.977559
 0.042947 0.160519
 0 0.981054
 0.049543 0.035786
 0.007488 0.839481
 0 0.984093
 0.003289 0.922384
 0.012199 0.753602
 0 0.986736
 0.049543 0.042952
 0 0.989034
 0.029153 0.434214
 0 0.991033
 0 0.99277
 0 0.994281
 0 0.995596
 0.003289 0.933076
 0 0.996738
 0 0.997732
 0 0.998596
 0 0.999347
 0 1
 0.007488 0.860986
 0.017381 0.672733
 0.042947 0.185251
 0.003289 0.942373
 0.023028 0.565786
 0.035782 0.327266
 0.000653 1
 0.003289 0.950458
 0.000801 0.998164
 0.000805 0.999112
 0.000921 0.997235
 0.001059 0.996167
 0.050697 0.049544
 0.001218 0.994938
 0.012199 0.786309
 0.0014 0.993525
 0.003289 0.957488
 0.007488 0.879686
 0.00161 0.991901
 0.050697 0.057628
 0.001852 0.990034
 0.003289 0.963601
 0.001405 1
 0.002129 0.987885
 0.003289 0.968917
 0.002449 0.985414
 0.042947 0.213691
 0.001837 0.999199
 0.050695 0.066928
 0.001997 0.998004
 0.002816 0.982573
 0.003289 0.973539
 0.002088 0.996843
 0.007488 0.895948
 0.003289 0.977559
 0.002402 0.995716
 0.002269 1
 0.050693 0.077619
 0.002762 0.99442
 0.012199 0.814749
 0.017381 0.715989
 0.002766 0.99908
 0.007488 0.910088
 0.003176 0.992929
 0.029153 0.5
 0.050693 0.089912
 0.003157 0.997912
 0.035782 0.37701
 0.003652 0.991216
 0.003438 0.996562
 0.003262 1
 0.023028 0.62299
 0.007488 0.922384
 0.042947 0.246398
 0.0042 0.989245
 0.050693 0.104052
 0.003834 0.998941
 0.012199 0.839481
 0.007488 0.933076
 0.004281 0.99572
 0.00483 0.986978
 0.004284 0.997598
 0.004637 0.994137
 0.004405 1
 0.017381 0.753602
 0.007488 0.942373
 0.050693 0.120315
 0.005555 0.984372
 0.007488 0.950458
 0.012199 0.860986
 0.005331 0.992606
 0.006009 0.980695
 0.005062 0.998783
 0.057627 0
 0.007488 0.957488
 0.057627 0.003289
 0.042946 0.284011
 0.005581 0.997238
 0.050691 0.139015
 0.007488 0.963601
 0.057627 0.007488
 0.005862 0.995364
 0.006131 0.990844
 0.005719 1
 0.057627 0.0122
 0.007488 0.968917
 0.023028 0.672733
 0.012199 0.879686
 0.007488 0.973539
 0.035782 0.434214
 0.057627 0.017382
 0.017381 0.786309
 0.029153 0.565786
 0.006475 0.9986
 0.057627 0.02303
 0.007051 0.988816
 0.05069 0.160519
 0.012199 0.895948
 0.057627 0.029157
 0.00707 0.996825
 0.008063 0.978342
 0.057627 0.035786
 0.007394 0.994669
 0.007575 0.992425
 0.00723 1
 0.008109 0.986485
 0.057628 0.042952
 0.012199 0.910088
 0.017381 0.814749
 0.042946 0.327266
 0.057628 0.050697
 0.05069 0.185251
 0.008099 0.99839
 0.012199 0.922384
 0.023028 0.715989
 0.009038 0.990962
 0.008784 0.996348
 0.012199 0.933076
 0.009156 0.993869
 0.008967 1
 0.017381 0.839481
 0.010018 0.982916
 0.0122 0.942373
 0.029153 0.62299
 0.05069 0.213691
 0.035782 0.5
 0.0122 0.950458
 0.059074 0.057629
 0.009967 0.998148
 0.0122 0.957488
 0.017381 0.860986
 0.023028 0.753602
 0.010721 0.989279
 0.059072 0.06693
 0.0122 0.963601
 0.042946 0.37701
 0.010755 0.9958
 0.0122 0.968917
 0.05907 0.07762
 0.011184 0.992949
 0.010966 1
 0.017381 0.879686
 0.05069 0.246398
 0.05907 0.089912
 0.023028 0.786309
 0.017381 0.895948
 0.029154 0.672733
 0.012115 0.997871
 0.059069 0.104052
 0.01382 0.973816
 0.013624 0.979491
 0.017381 0.910088
 0.013022 0.99517
 0.059069 0.120316
 0.035782 0.565786
 0.013514 0.991891
 0.050689 0.284011
 0.013264 1
 0.014023 0.985977
 0.042946 0.434214
 0.017381 0.922384
 0.023028 0.814749
 0.017381 0.933076
 0.059066 0.139015
 0.029154 0.715989
 0.017382 0.942373
 0.014586 0.997551
 0.066925 0
 0.023028 0.839481
 0.066925 0.003289
 0.017382 0.950458
 0.066925 0.007488
 0.059066 0.160519
 0.017382 0.957488
 0.066925 0.0122
 0.015628 0.994445
 0.066925 0.017382
 0.050689 0.327266
 0.017382 0.963601
 0.066925 0.02303
 0.023028 0.860986
 0.017383 0.968916
 0.015907 1
 0.035782 0.62299
 0.066926 0.029156
 0.029154 0.753602
 0.059066 0.185251
 0.066926 0.035786
 0.017084 0.989983
 0.023029 0.879686
 0.042946 0.5
 0.066927 0.042951
 0.066928 0.050695
 0.017427 0.997184
 0.023029 0.895948
 0.06693 0.059072
 0.059066 0.213691
 0.029154 0.786309
 0.050689 0.37701
 0.019627 0.974184
 0.023029 0.910088
 0.019638 0.980362
 0.035782 0.672733
 0.018946 1
 0.023029 0.922384
 0.019305 0.99399
 0.068146 0.066931
 0.029154 0.814749
 0.023029 0.933076
 0.059066 0.246398
 0.020509 0.986376
 0.068143 0.077621
 0.02303 0.942372
 0.042946 0.565786
 0.02303 0.950458
 0.068143 0.089912
 0.029154 0.839481
 0.02303 0.957488
 0.035782 0.715989
 0.050689 0.434214
 0.02303 0.9636
 0.068143 0.104053
 0.021658 0.991937
 0.059064 0.284011
 0.029154 0.860986
 0.023232 0.976768
 0.068141 0.120317
 0.023694 0.969963
 0.022442 0.996711
 0.022442 1
 0.029155 0.879686
 0.035782 0.753602
 0.068139 0.139016
 0.042946 0.62299
 0.029155 0.895948
 0.059064 0.327266
 0.068138 0.160519
 0.029155 0.910088
 0.050689 0.5
 0.035782 0.786309
 0.025816 0.980373
 0.029155 0.922384
 0.077617 0
 0.077617 0.003289
 0.068138 0.185251
 0.026184 0.986181
 0.077617 0.007488
 0.029155 0.933075
 0.042946 0.672733
 0.077617 0.012199
 0.026461 0.992512
 0.035783 0.814749
 0.077617 0.017381
 0.029157 0.942372
 0.026461 0.996711
 0.059064 0.37701
 0.077617 0.023029
 0.026461 1
 0.029157 0.950458
 0.077618 0.029155
 0.029157 0.957488
 0.068138 0.213691
 0.077618 0.035784
 0.035783 0.839481
 0.077619 0.042949
 0.077619 0.050693
 0.050689 0.565786
 0.042946 0.715989
 0.07762 0.05907
 0.035783 0.860986
 0.068138 0.246398
 0.077621 0.068143
 0.030037 0.976306
 0.031234 0.963788
 0.059064 0.434214
 0.035784 0.879686
 0.077993 0.077623
 0.042946 0.753602
 0.031084 0.982617
 0.077992 0.089912
 0.035784 0.895948
 0.031083 0.9878
 0.068136 0.284011
 0.031083 0.992512
 0.031083 0.996711
 0.050689 0.62299
 0.077992 0.104053
 0.035784 0.910088
 0.031083 1
 0.035784 0.922384
 0.042946 0.786309
 0.07799 0.120317
 0.035784 0.933075
 0.033811 0.970958
 0.035786 0.942371
 0.059064 0.5
 0.077987 0.139017
 0.068136 0.327266
 0.035787 0.950457
 0.042947 0.814749
 0.05069 0.672733
 0.035787 0.957488
 0.035584 0.966905
 0.077987 0.160519
 0.042947 0.839481
 0.0364 0.97697
 0.077987 0.185251
 0.068136 0.37701
 0.036399 0.982618
 0.042947 0.860985
 0.036399 0.9878
 0.05069 0.715989
 0.036399 0.992512
 0.036399 0.996711
 0.059064 0.565786
 0.036399 1
 0.042949 0.879685
 0.077987 0.213691
 0.042949 0.895948
 0.089912 0
 0.089912 0.003289
 0.05069 0.753602
 0.089912 0.007488
 0.089912 0.012199
 0.042949 0.910088
 0.089912 0.017381
 0.068136 0.434214
 0.077986 0.246399
 0.089912 0.023029
 0.042949 0.922384
 0.089912 0.029155
 0.059064 0.62299
 0.089912 0.035784
 0.042949 0.933074
 0.05069 0.786309
 0.089912 0.042949
 0.042952 0.94237
 0.089912 0.050693
 0.042953 0.950457
 0.077984 0.284012
 0.089912 0.05907
 0.042512 0.964213
 0.050691 0.814749
 0.042512 0.970843
 0.088714 0.089913
 0.089912 0.068143
 0.042512 0.97697
 0.089912 0.077992
 0.042512 0.982618
 0.088713 0.104054
 0.042512 0.9878
 0.059065 0.672733
 0.068136 0.5
 0.042512 0.992512
 0.050691 0.839481
 0.042512 0.996711
 0.042512 1
 0.088711 0.120319
 0.077984 0.327266
 0.050691 0.860985
 0.088707 0.139018
 0.059065 0.715989
 0.050693 0.879685
 0.088707 0.160519
 0.050693 0.895948
 0.077984 0.37701
 0.068136 0.565786
 0.050693 0.910088
 0.088707 0.185251
 0.059065 0.753602
 0.050693 0.922384
 0.049545 0.949302
 0.050694 0.933073
 0.049544 0.957047
 0.088707 0.213691
 0.049544 0.964213
 0.050696 0.942369
 0.059065 0.786309
 0.049543 0.970843
 0.077983 0.434214
 0.049543 0.97697
 0.068136 0.62299
 0.049543 0.982618
 0.049543 0.9878
 0.049543 0.992512
 0.088706 0.246399
 0.059066 0.814749
 0.049543 0.996711
 0.049543 1
 0.059066 0.839481
 0.068137 0.672733
 0.088704 0.284012
 0.104052 0
 0.077983 0.5
 0.059066 0.860985
 0.104052 0.003289
 0.104052 0.007488
 0.104052 0.012199
 0.104052 0.017381
 0.059069 0.879684
 0.104052 0.023029
 0.104052 0.029155
 0.068137 0.715989
 0.088704 0.327266
 0.100425 0.104055
 0.104052 0.035784
 0.059069 0.895948
 0.104052 0.042949
 0.104052 0.050693
 0.100422 0.120321
 0.05907 0.910088
 0.057633 0.940927
 0.104052 0.059069
 0.057631 0.949304
 0.05907 0.922384
 0.104053 0.068143
 0.068137 0.753602
 0.077983 0.565786
 0.100418 0.139019
 0.05763 0.957048
 0.05907 0.933071
 0.104053 0.077992
 0.057629 0.964214
 0.088704 0.37701
 0.057628 0.970843
 0.104054 0.088713
 0.057627 0.97697
 0.100417 0.16052
 0.057627 0.982618
 0.068137 0.786308
 0.057627 0.9878
 0.057627 0.992512
 0.057627 0.996711
 0.057627 1
 0.100417 0.185251
 0.077983 0.62299
 0.068139 0.814748
 0.088702 0.434214
 0.100417 0.213691
 0.068139 0.839481
 0.077985 0.672733
 0.068139 0.860984
 0.100416 0.2464
 0.068141 0.879684
 0.109506 0.094539
 0.109303 0.106849
 0.088702 0.5
 0.068143 0.895947
 0.100413 0.284012
 0.077985 0.715989
 0.066932 0.931856
 0.068143 0.910088
 0.06693 0.94093
 0.068143 0.922383
 0.066928 0.949306
 0.066927 0.957051
 0.066926 0.964216
 0.077985 0.753602
 0.100413 0.327266
 0.066926 0.970845
 0.066925 0.976971
 0.088703 0.565786
 0.066925 0.982619
 0.066925 0.987801
 0.066925 0.992513
 0.066925 0.996711
 0.077985 0.786308
 0.066925 1
 0.11327 0.120323
 0.100413 0.377011
 0.120314 0
 0.120314 0.003289
 0.113264 0.139021
 0.077987 0.814748
 0.120314 0.007488
 0.120314 0.012199
 0.120314 0.017381
 0.088703 0.622989
 0.120314 0.023029
 0.113264 0.16052
 0.120314 0.029155
 0.077987 0.839481
 0.120314 0.035784
 0.120315 0.042949
 0.120315 0.050693
 0.113264 0.185251
 0.077987 0.860984
 0.100411 0.434214
 0.120316 0.059069
 0.120317 0.068141
 0.088705 0.672732
 0.07799 0.879683
 0.120317 0.07799
 0.113263 0.213691
 0.077992 0.895947
 0.120319 0.088711
 0.120321 0.100422
 0.077992 0.910088
 0.077618 0.922007
 0.113262 0.2464
 0.088705 0.715989
 0.120324 0.11327
 0.077618 0.931857
 0.100412 0.5
 0.077618 0.94093
 0.077617 0.949307
 0.077617 0.957051
 0.113259 0.284013
 0.077617 0.964216
 0.088705 0.753602
 0.077617 0.970845
 0.077617 0.976971
 0.077617 0.982619
 0.077617 0.987801
 0.077617 0.992513
 0.077617 0.996711
 0.088705 0.786308
 0.077617 1
 0.100412 0.565786
 0.113259 0.327266
 0.123989 0.123989
 0.088707 0.814748
 0.088708 0.839481
 0.113259 0.377011
 0.100412 0.622989
 0.088708 0.860983
 0.12743 0.139023
 0.088711 0.879682
 0.088713 0.895946
 0.100415 0.672732
 0.127429 0.16052
 0.113256 0.434215
 0.127429 0.185251
 0.089913 0.911286
 0.100415 0.715989
 0.089912 0.922008
 0.127428 0.213692
 0.089912 0.931857
 0.139014 0
 0.139014 0.003289
 0.089912 0.94093
 0.139014 0.007487
 0.113257 0.5
 0.139014 0.012199
 0.089912 0.949307
 0.100415 0.753602
 0.139014 0.017381
 0.089912 0.957051
 0.139014 0.023028
 0.127426 0.246401
 0.089912 0.964216
 0.139014 0.029154
 0.089912 0.970845
 0.139014 0.035783
 0.089912 0.976971
 0.094538 0.890494
 0.139015 0.042947
 0.089912 0.982619
 0.100415 0.786307
 0.139015 0.050691
 0.089912 0.987801
 0.089912 0.992513
 0.139015 0.059066
 0.089912 0.996711
 0.127422 0.284014
 0.089912 1
 0.139016 0.068139
 0.113257 0.565786
 0.139017 0.077987
 0.100418 0.814747
 0.139018 0.088707
 0.139019 0.100418
 0.100418 0.839481
 0.127422 0.327266
 0.139021 0.113264
 0.100418 0.860982
 0.139023 0.12743
 0.113257 0.622989
 0.100422 0.87968
 0.127422 0.377011
 0.11326 0.672732
 0.12742 0.434215
 0.143145 0.139024
 0.113261 0.715989
 0.104055 0.899575
 0.143143 0.16052
 0.104054 0.911287
 0.104053 0.922008
 0.113261 0.753602
 0.143143 0.185251
 0.104053 0.931857
 0.104052 0.940931
 0.106848 0.890698
 0.12742 0.5
 0.104052 0.949307
 0.104052 0.957051
 0.143142 0.213692
 0.113261 0.786307
 0.104052 0.964216
 0.104052 0.970845
 0.104052 0.976971
 0.104052 0.982619
 0.104052 0.987801
 0.113264 0.814746
 0.14314 0.246402
 0.104052 0.992513
 0.104052 0.996711
 0.104052 1
 0.12742 0.565786
 0.113265 0.839481
 0.143135 0.284015
 0.113265 0.86098
 0.11327 0.879677
 0.12742 0.622988
 0.143135 0.327266
 0.160519 0
 0.160519 0.003289
 0.160519 0.007487
 0.160519 0.012199
 0.160519 0.017381
 0.160519 0.023028
 0.160519 0.029154
 0.160519 0.035782
 0.127424 0.672731
 0.160519 0.042947
 0.143135 0.377011
 0.160519 0.05069
 0.160519 0.059066
 0.160519 0.068138
 0.160519 0.077987
 0.127425 0.715989
 0.160519 0.088707
 0.122228 0.828187
 0.16052 0.100417
 0.143132 0.434215
 0.16052 0.113264
 0.120322 0.88673
 0.127425 0.753602
 0.16052 0.127429
 0.12032 0.899578
 0.16052 0.143143
 0.120319 0.911289
 0.127425 0.786306
 0.120317 0.92201
 0.160703 0.160521
 0.120316 0.931859
 0.143132 0.5
 0.120316 0.940932
 0.123989 0.876011
 0.120315 0.949307
 0.127429 0.814745
 0.160702 0.185252
 0.120315 0.957051
 0.120314 0.964216
 0.120314 0.970845
 0.12743 0.83948
 0.120314 0.976971
 0.120314 0.982619
 0.160701 0.213693
 0.120314 0.987801
 0.120314 0.992513
 0.120314 0.996711
 0.127431 0.860979
 0.120314 1
 0.143133 0.565786
 0.160699 0.246404
 0.160693 0.284016
 0.143133 0.622988
 0.169757 0.151923
 0.160693 0.327266
 0.171725 0.122389
 0.143137 0.672731
 0.136057 0.824128
 0.160692 0.377012
 0.143138 0.715989
 0.143139 0.753602
 0.175907 0.136204
 0.160689 0.434216
 0.139022 0.856854
 0.143139 0.786305
 0.139021 0.872569
 0.185251 0
 0.185251 0.003289
 0.13902 0.886735
 0.185251 0.007487
 0.143143 0.814743
 0.185251 0.012199
 0.185251 0.017381
 0.139018 0.899582
 0.185251 0.023028
 0.139017 0.911292
 0.185251 0.029154
 0.160689 0.499999
 0.185251 0.035782
 0.143145 0.83948
 0.139016 0.922013
 0.185251 0.042947
 0.139016 0.931861
 0.185251 0.05069
 0.139015 0.940934
 0.185251 0.059066
 0.139015 0.949309
 0.185251 0.068138
 0.139015 0.957053
 0.185251 0.077987
 0.139014 0.964217
 0.139014 0.970846
 0.185251 0.088707
 0.180492 0.185252
 0.139014 0.976972
 0.16069 0.565786
 0.139014 0.982619
 0.185251 0.100417
 0.139014 0.987801
 0.139014 0.992513
 0.185251 0.113264
 0.139014 0.996711
 0.139014 1
 0.18049 0.213694
 0.185251 0.127429
 0.185251 0.143143
 0.16069 0.622987
 0.180487 0.246406
 0.185252 0.160702
 0.18048 0.284017
 0.151925 0.829971
 0.160695 0.672729
 0.18048 0.327266
 0.160697 0.715988
 0.160697 0.753602
 0.180479 0.377013
 0.160697 0.786303
 0.180475 0.434216
 0.160702 0.814741
 0.160521 0.839295
 0.16052 0.856855
 0.16052 0.87257
 0.180475 0.499999
 0.160519 0.886735
 0.160519 0.899582
 0.160519 0.911292
 0.160519 0.922013
 0.160519 0.931861
 0.160519 0.940934
 0.180476 0.565786
 0.160519 0.949309
 0.160519 0.957053
 0.160519 0.964217
 0.160519 0.970846
 0.160519 0.976972
 0.160519 0.982619
 0.160519 0.987801
 0.160519 0.992513
 0.160519 0.996711
 0.160519 1
 0.180476 0.622986
 0.213691 0
 0.213691 0.003289
 0.213691 0.007487
 0.203015 0.213696
 0.213691 0.012199
 0.213691 0.017381
 0.213691 0.023028
 0.213691 0.029154
 0.213691 0.035782
 0.180482 0.672728
 0.203011 0.24641
 0.213691 0.042947
 0.213691 0.05069
 0.213691 0.059066
 0.213691 0.068138
 0.213691 0.077987
 0.203003 0.284019
 0.180484 0.715988
 0.213691 0.088707
 0.213691 0.100417
 0.213691 0.113263
 0.180485 0.753602
 0.203003 0.327266
 0.213692 0.127428
 0.213692 0.143142
 0.180485 0.786301
 0.213693 0.160701
 0.203001 0.377014
 0.213694 0.18049
 0.213696 0.203015
 0.202995 0.434217
 0.185261 0.819508
 0.202996 0.499999
 0.185259 0.839298
 0.185257 0.856857
 0.185255 0.872571
 0.185254 0.886736
 0.185253 0.899582
 0.202998 0.565785
 0.185252 0.911293
 0.185252 0.922013
 0.185252 0.931861
 0.185251 0.940934
 0.185251 0.949309
 0.185251 0.957053
 0.202998 0.622985
 0.185251 0.964217
 0.185251 0.970846
 0.185251 0.976972
 0.185251 0.982619
 0.185251 0.987801
 0.185251 0.992513
 0.185251 0.996711
 0.185251 1
 0.203005 0.672726
 0.203008 0.715987
 0.228943 0.246414
 0.203009 0.753602
 0.228934 0.284022
 0.203009 0.786301
 0.228933 0.327267
 0.246398 0
 0.246398 0.003289
 0.246398 0.007487
 0.246398 0.012199
 0.246398 0.017381
 0.246398 0.023028
 0.246398 0.029154
 0.246398 0.035782
 0.246398 0.042947
 0.228931 0.377015
 0.246398 0.05069
 0.246398 0.059066
 0.246398 0.068138
 0.246399 0.077986
 0.246399 0.088706
 0.2464 0.100416
 0.228925 0.434218
 0.2464 0.113262
 0.246401 0.127426
 0.246402 0.14314
 0.213701 0.771058
 0.246404 0.160699
 0.228925 0.499999
 0.213701 0.796991
 0.246406 0.180487
 0.213699 0.819515
 0.24641 0.203011
 0.213697 0.839303
 0.246414 0.228943
 0.228927 0.565785
 0.213695 0.856862
 0.213694 0.872575
 0.213693 0.886739
 0.213693 0.899585
 0.213692 0.911295
 0.228927 0.622983
 0.213692 0.922015
 0.213692 0.931863
 0.213691 0.940935
 0.213691 0.94931
 0.213691 0.957054
 0.228936 0.672723
 0.213691 0.964218
 0.213691 0.970846
 0.213691 0.976972
 0.213691 0.982619
 0.213691 0.987801
 0.213691 0.992513
 0.213691 0.996711
 0.213691 1
 0.22894 0.715986
 0.228941 0.753601
 0.259168 0.284026
 0.259167 0.327267
 0.259165 0.377018
 0.259156 0.43422
 0.284011 0
 0.284011 0.003289
 0.284011 0.007487
 0.284011 0.012199
 0.284011 0.017381
 0.284011 0.023028
 0.2464 0.740823
 0.259157 0.499998
 0.284011 0.029154
 0.284011 0.035782
 0.284011 0.042946
 0.284011 0.050689
 0.246399 0.771059
 0.284011 0.059064
 0.284011 0.068136
 0.284012 0.077984
 0.246398 0.796991
 0.284012 0.088704
 0.259159 0.565785
 0.284012 0.100413
 0.246398 0.819515
 0.284013 0.113259
 0.246398 0.839303
 0.284014 0.127422
 0.246398 0.856862
 0.284015 0.143135
 0.259159 0.62298
 0.246398 0.872575
 0.284016 0.160693
 0.246398 0.886739
 0.284017 0.18048
 0.246398 0.899585
 0.246398 0.911295
 0.25917 0.672719
 0.284019 0.203003
 0.246398 0.922015
 0.246398 0.931863
 0.246398 0.940935
 0.284022 0.228934
 0.246398 0.94931
 0.246398 0.957054
 0.259175 0.715984
 0.246398 0.964218
 0.246398 0.970846
 0.246398 0.976972
 0.284026 0.259168
 0.246398 0.982619
 0.246398 0.987801
 0.246398 0.992513
 0.246398 0.996711
 0.246398 1
 0.294868 0.284026
 0.294866 0.327269
 0.294863 0.377022
 0.294852 0.434222
 0.294854 0.499997
 0.284016 0.740825
 0.284014 0.77106
 0.294857 0.565784
 0.284013 0.796992
 0.284012 0.819515
 0.327266 0
 0.327266 0.003289
 0.294857 0.622976
 0.327266 0.007487
 0.327266 0.012199
 0.284012 0.839303
 0.327266 0.017381
 0.327266 0.023028
 0.327266 0.029154
 0.284011 0.856862
 0.327266 0.035782
 0.327266 0.042946
 0.284011 0.872575
 0.327266 0.050689
 0.29487 0.672713
 0.327266 0.059064
 0.284011 0.886739
 0.327266 0.068136
 0.284011 0.899585
 0.327266 0.077984
 0.284011 0.911295
 0.327266 0.088704
 0.295218 0.704782
 0.284011 0.922015
 0.327266 0.100413
 0.284011 0.931863
 0.327266 0.113259
 0.284011 0.940935
 0.284011 0.94931
 0.327266 0.127422
 0.284011 0.957054
 0.284011 0.964218
 0.327266 0.143135
 0.284011 0.970846
 0.284011 0.976972
 0.284011 0.982619
 0.327266 0.160693
 0.284011 0.987801
 0.284011 0.992513
 0.284011 0.996711
 0.284011 1
 0.327266 0.18048
 0.327266 0.203003
 0.327267 0.228933
 0.327267 0.259167
 0.327269 0.294866
 0.337419 0.327271
 0.337414 0.377027
 0.337401 0.434225
 0.337403 0.499996
 0.327286 0.70513
 0.32728 0.74083
 0.337406 0.565783
 0.327276 0.771064
 0.327273 0.796995
 0.337407 0.622971
 0.327271 0.819518
 0.32727 0.839305
 0.327269 0.856863
 0.327268 0.872576
 0.327267 0.88674
 0.339291 0.660709
 0.327267 0.899586
 0.327267 0.911295
 0.327266 0.922015
 0.327266 0.931863
 0.327266 0.940935
 0.37701 0
 0.327266 0.94931
 0.37701 0.003289
 0.37701 0.007487
 0.327266 0.957054
 0.37701 0.012199
 0.327266 0.964218
 0.37701 0.017381
 0.327266 0.970846
 0.37701 0.023028
 0.327266 0.976972
 0.37701 0.029154
 0.327266 0.982619
 0.37701 0.035782
 0.327266 0.987801
 0.37701 0.042946
 0.327266 0.992513
 0.327266 0.996711
 0.37701 0.050689
 0.327266 1
 0.37701 0.059064
 0.37701 0.068136
 0.37701 0.077984
 0.37701 0.088704
 0.377011 0.100413
 0.377011 0.113259
 0.377011 0.127422
 0.377011 0.143135
 0.377012 0.160692
 0.377013 0.180479
 0.377014 0.203001
 0.377015 0.228931
 0.377018 0.259165
 0.377022 0.294863
 0.377027 0.337414
 0.388063 0.43423
 0.39038 0.39038
 0.377029 0.662593
 0.377024 0.705143
 0.388065 0.499994
 0.37702 0.740841
 0.377017 0.771073
 0.388069 0.565782
 0.377015 0.797002
 0.377014 0.819524
 0.377013 0.83931
 0.377012 0.856867
 0.390373 0.609627
 0.377012 0.87258
 0.377011 0.886743
 0.377011 0.899588
 0.377011 0.911297
 0.37701 0.922017
 0.37701 0.931864
 0.37701 0.940936
 0.37701 0.949311
 0.37701 0.957054
 0.37701 0.964218
 0.37701 0.970847
 0.37701 0.976972
 0.37701 0.98262
 0.37701 0.987801
 0.37701 0.992513
 0.37701 0.996711
 0.37701 1
 0.434214 0
 0.434214 0.003289
 0.434214 0.007487
 0.434214 0.012199
 0.434214 0.01738
 0.434214 0.023028
 0.434214 0.029153
 0.434214 0.035782
 0.434214 0.042946
 0.434214 0.050689
 0.434214 0.059064
 0.434214 0.068136
 0.434214 0.077983
 0.434214 0.088702
 0.434214 0.100411
 0.434215 0.113256
 0.434215 0.12742
 0.434215 0.143132
 0.434216 0.160689
 0.434216 0.180475
 0.434217 0.202995
 0.434218 0.228925
 0.43422 0.259156
 0.434222 0.294852
 0.434225 0.337401
 0.43423 0.388063
 0.434211 0.611929
 0.434212 0.662593
 0.44693 0.434228
 0.434213 0.705143
 0.434213 0.74084
 0.446928 0.499991
 0.434213 0.771073
 0.434214 0.797002
 0.434214 0.819524
 0.448867 0.551133
 0.434214 0.83931
 0.434214 0.856867
 0.434214 0.87258
 0.434214 0.886743
 0.434214 0.899588
 0.434214 0.911297
 0.434214 0.922017
 0.434214 0.931864
 0.434214 0.940936
 0.434214 0.949311
 0.434214 0.957054
 0.434214 0.964218
 0.434214 0.970847
 0.434214 0.976972
 0.434214 0.98262
 0.434214 0.987801
 0.434214 0.992513
 0.434214 0.996711
 0.434214 1
 0.5 0
 0.5 0.003289
 0.5 0.007487
 0.5 0.012199
 0.5 0.01738
 0.5 0.023028
 0.5 0.029153
 0.5 0.035782
 0.5 0.042946
 0.5 0.050689
 0.5 0.059064
 0.5 0.068136
 0.5 0.077983
 0.5 0.088702
 0.5 0.100412
 0.5 0.113257
 0.5 0.12742
 0.5 0.143132
 0.499999 0.160689
 0.499999 0.180475
 0.499999 0.202996
 0.499999 0.228925
 0.499998 0.259157
 0.499997 0.294854
 0.499996 0.337403
 0.499994 0.388065
 0.499991 0.446928
 0.499991 0.553063
 0.499994 0.611927
 0.499996 0.662591
 0.499997 0.705141
 0.499998 0.740839
 0.499999 0.771072
 0.499999 0.797002
 0.499999 0.819523
 0.499999 0.83931
 0.5 0.856867
 0.5 0.872579
 0.5 0.886743
 0.5 0.899588
 0.5 0.911297
 0.5 0.922017
 0.5 0.931864
 0.5 0.940936
 0.5 0.949311
 0.5 0.957054
 0.5 0.964218
 0.5 0.970847
 0.5 0.976972
 0.5 0.98262
 0.5 0.987801
 0.5 0.992513
 0.5 0.996711
 0.5 1
 0.565786 0
 0.565786 0.003289
 0.565786 0.007487
 0.565786 0.012199
 0.565786 0.01738
 0.565786 0.023028
 0.565786 0.029153
 0.565786 0.035782
 0.565786 0.042946
 0.565786 0.050689
 0.565786 0.059064
 0.565786 0.068136
 0.565786 0.077983
 0.565786 0.088703
 0.565786 0.100412
 0.565786 0.113257
 0.565786 0.12742
 0.565786 0.143133
 0.565786 0.16069
 0.551133 0.448867
 0.565786 0.180476
 0.565785 0.202998
 0.565785 0.228927
 0.553063 0.499991
 0.565785 0.259159
 0.565784 0.294857
 0.553054 0.565779
 0.565783 0.337406
 0.565782 0.388069
 0.565782 0.611923
 0.565783 0.662588
 0.565784 0.705139
 0.565785 0.740837
 0.565785 0.77107
 0.565785 0.797
 0.565786 0.819522
 0.565786 0.839309
 0.565786 0.856866
 0.565786 0.872579
 0.565786 0.886742
 0.565786 0.899587
 0.565786 0.911297
 0.565786 0.922016
 0.565786 0.931864
 0.565786 0.940936
 0.565786 0.949311
 0.565786 0.957054
 0.565786 0.964218
 0.565786 0.970846
 0.565786 0.976972
 0.565786 0.98262
 0.565786 0.987801
 0.565786 0.992513
 0.565786 0.996711
 0.565786 1
 0.62299 0
 0.62299 0.003289
 0.62299 0.007487
 0.62299 0.012199
 0.62299 0.01738
 0.62299 0.023028
 0.62299 0.029153
 0.62299 0.035782
 0.62299 0.042946
 0.62299 0.050689
 0.62299 0.059064
 0.62299 0.068136
 0.62299 0.077983
 0.62299 0.088703
 0.622989 0.100412
 0.622989 0.113257
 0.622989 0.12742
 0.609629 0.390371
 0.622988 0.143133
 0.622988 0.16069
 0.622987 0.180476
 0.622986 0.202998
 0.611929 0.434211
 0.622984 0.228927
 0.622982 0.259159
 0.611927 0.499994
 0.622979 0.294857
 0.622974 0.337407
 0.611923 0.565782
 0.609629 0.609629
 0.622989 0.662587
 0.62299 0.705138
 0.62299 0.740837
 0.62299 0.77107
 0.62299 0.797
 0.62299 0.819522
 0.62299 0.839309
 0.62299 0.856866
 0.62299 0.872579
 0.62299 0.886742
 0.62299 0.899587
 0.62299 0.911297
 0.62299 0.922016
 0.62299 0.931864
 0.62299 0.940936
 0.672733 0
 0.62299 0.949311
 0.672733 0.003289
 0.672733 0.007487
 0.62299 0.957054
 0.672733 0.012199
 0.62299 0.964218
 0.672733 0.017381
 0.62299 0.970846
 0.672733 0.023028
 0.62299 0.976972
 0.672733 0.029154
 0.62299 0.98262
 0.672733 0.035782
 0.62299 0.987801
 0.672733 0.042946
 0.62299 0.992513
 0.62299 0.996711
 0.672733 0.05069
 0.62299 1
 0.672733 0.059065
 0.672733 0.068137
 0.672733 0.077985
 0.672733 0.088704
 0.672732 0.100414