VARIABLES = "x" "y"
ZONE T="InnerCells" SOLUTIONTIME=0 DATAPACKING=POINT N=3136 E=6050 ZONETYPE=FETRIANGLE
 0 0
 0 6.52957688595041e-05
 0 0.000261183075438017
 0 0.000587661919735536
 0 0.00104473230175206
 0 0.0016323942214876
 0 0.00235064767894214
 0 0.0031994926741157
 0 0.00417892920700827
 0 0.00528895727761983
 0 0.00652957688595041
 0 0.007900788032
 0 0.0094025907157686
 0 0.0110349849372562
 0 0.0127979706964628
 0 0.0146915479933884
 0 0.0167157168280331
 0 0.0188704772003967
 0 0.0211558291104793
 0 0.023571772558281
 0 0.0261183075438017
 0 0.0287954340670413
 0 0.031603152128
 0 0.0345414617266777
 0 0.0376103628630743
 0 0.0408098555371901
 0 0.0441399397490248
 0 0.0476006154985786
 0 0.0511592349014214
 0 0.0546199106509752
 0 0.0579499948628099
 0 0.0611494875369257
 0 0.0642183886733224
 0 0.067156698272
 0 0.0699644163329586
 0 0.0726415428561983
 0 0.075188077841719
 0 0.0776040212895207
 0 0.0798893731996033
 0 0.0820441335719668
 0 0.0840683024066115
 0 0.0859618797035373
 0 0.0877248654627438
 0 0.0893572596842315
 0 0.090859062368
 0 0.0922302735140495
 0 0.0934708931223803
 0 0.0945809211929918
 0 0.0955603577258844
 0 0.0964092027210579
 0 0.0971274561785125
 0 0.0977151180982478
 0 0.0981721884802644
 0 0.098498667324562
 0 0.0986945546311404
 0 0.0987598504
 6.52957688595041e-05 0
 6.52957688595041e-05 6.52957688595041e-05
 6.52957688595041e-05 0.000261183075438017
 6.52957688595041e-05 0.000587661919735536
 6.52957688595041e-05 0.00104473230175206
 6.52957688595041e-05 0.0016323942214876
 6.52957688595041e-05 0.00235064767894214
 6.52957688595041e-05 0.0031994926741157
 6.52957688595041e-05 0.00417892920700827
 6.52957688595041e-05 0.00528895727761983
 6.52957688595041e-05 0.00652957688595041
 6.52957688595041e-05 0.007900788032
 6.52957688595041e-05 0.0094025907157686
 6.52957688595041e-05 0.0110349849372562
 6.52957688595041e-05 0.0127979706964628
 6.52957688595041e-05 0.0146915479933884
 6.52957688595041e-05 0.0167157168280331
 6.52957688595041e-05 0.0188704772003967
 6.52957688595041e-05 0.0211558291104793
 6.52957688595041e-05 0.023571772558281
 6.52957688595041e-05 0.0261183075438017
 6.52957688595041e-05 0.0287954340670413
 6.52957688595041e-05 0.031603152128
 6.52957688595041e-05 0.0345414617266777
 6.52957688595041e-05 0.0376103628630743
 6.52957688595041e-05 0.0408098555371901
 6.52957688595041e-05 0.0441399397490248
 6.52957688595041e-05 0.0476006154985786
 6.52957688595041e-05 0.0511592349014214
 6.52957688595041e-05 0.0546199106509752
 6.52957688595041e-05 0.0579499948628099
 6.52957688595041e-05 0.0611494875369257
 6.52957688595041e-05 0.0642183886733224
 6.52957688595041e-05 0.067156698272
 6.52957688595041e-05 0.0699644163329586
 6.52957688595041e-05 0.0726415428561983
 6.52957688595041e-05 0.075188077841719
 6.52957688595041e-05 0.0776040212895207
 6.52957688595041e-05 0.0798893731996033
 6.52957688595041e-05 0.0820441335719668
 6.52957688595041e-05 0.0840683024066115
 6.52957688595041e-05 0.0859618797035373
 6.52957688595041e-05 0.0877248654627438
 6.52957688595041e-05 0.0893572596842315
 6.52957688595041e-05 0.090859062368
 6.52957688595041e-05 0.0922302735140495
 6.52957688595041e-05 0.0934708931223803
 6.52957688595041e-05 0.0945809211929918
 6.52957688595041e-05 0.0955603577258844
 6.52957688595041e-05 0.0964092027210579
 6.52957688595041e-05 0.0971274561785125
 6.52957688595041e-05 0.0977151180982478
 6.52957688595041e-05 0.0981721884802644
 6.52957688595041e-05 0.098498667324562
 6.52957688595041e-05 0.0986945546311404
 6.52957688595041e-05 0.0987598504
 0.000261183075438017 0
 0.000261183075438017 6.52957688595041e-05
 0.000261183075438017 0.000261183075438017
 0.000261183075438017 0.000587661919735536
 0.000261183075438017 0.00104473230175206
 0.000261183075438017 0.0016323942214876
 0.000261183075438017 0.00235064767894214
 0.000261183075438017 0.0031994926741157
 0.000261183075438017 0.00417892920700827
 0.000261183075438017 0.00528895727761983
 0.000261183075438017 0.00652957688595041
 0.000261183075438017 0.007900788032
 0.000261183075438017 0.0094025907157686
 0.000261183075438017 0.0110349849372562
 0.000261183075438017 0.0127979706964628
 0.000261183075438017 0.0146915479933884
 0.000261183075438017 0.0167157168280331
 0.000261183075438017 0.0188704772003967
 0.000261183075438017 0.0211558291104793
 0.000261183075438017 0.023571772558281
 0.000261183075438017 0.0261183075438017
 0.000261183075438017 0.0287954340670413
 0.000261183075438017 0.031603152128
 0.000261183075438017 0.0345414617266777
 0.000261183075438017 0.0376103628630743
 0.000261183075438017 0.0408098555371901
 0.000261183075438017 0.0441399397490248
 0.000261183075438017 0.0476006154985786
 0.000261183075438017 0.0511592349014214
 0.000261183075438017 0.0546199106509752
 0.000261183075438017 0.0579499948628099
 0.000261183075438017 0.0611494875369257
 0.000261183075438017 0.0642183886733224
 0.000261183075438017 0.067156698272
 0.000261183075438017 0.0699644163329586
 0.000261183075438017 0.0726415428561983
 0.000261183075438017 0.075188077841719
 0.000261183075438017 0.0776040212895207
 0.000261183075438017 0.0798893731996033
 0.000261183075438017 0.0820441335719668
 0.000261183075438017 0.0840683024066115
 0.000261183075438017 0.0859618797035373
 0.000261183075438017 0.0877248654627438
 0.000261183075438017 0.0893572596842315
 0.000261183075438017 0.090859062368
 0.000261183075438017 0.0922302735140495
 0.000261183075438017 0.0934708931223803
 0.000261183075438017 0.0945809211929918
 0.000261183075438017 0.0955603577258844
 0.000261183075438017 0.0964092027210579
 0.000261183075438017 0.0971274561785125
 0.000261183075438017 0.0977151180982478
 0.000261183075438017 0.0981721884802644
 0.000261183075438017 0.098498667324562
 0.000261183075438017 0.0986945546311404
 0.000261183075438017 0.0987598504
 0.000587661919735536 0
 0.000587661919735536 6.52957688595041e-05
 0.000587661919735536 0.000261183075438017
 0.000587661919735536 0.000587661919735536
 0.000587661919735536 0.00104473230175206
 0.000587661919735536 0.0016323942214876
 0.000587661919735536 0.00235064767894214
 0.000587661919735536 0.0031994926741157
 0.000587661919735536 0.00417892920700827
 0.000587661919735536 0.00528895727761983
 0.000587661919735536 0.00652957688595041
 0.000587661919735536 0.007900788032
 0.000587661919735536 0.0094025907157686
 0.000587661919735536 0.0110349849372562
 0.000587661919735536 0.0127979706964628
 0.000587661919735536 0.0146915479933884
 0.000587661919735536 0.0167157168280331
 0.000587661919735536 0.0188704772003967
 0.000587661919735536 0.0211558291104793
 0.000587661919735536 0.023571772558281
 0.000587661919735536 0.0261183075438017
 0.000587661919735536 0.0287954340670413
 0.000587661919735536 0.031603152128
 0.000587661919735536 0.0345414617266777
 0.000587661919735536 0.0376103628630743
 0.000587661919735536 0.0408098555371901
 0.000587661919735536 0.0441399397490248
 0.000587661919735536 0.0476006154985786
 0.000587661919735536 0.0511592349014214
 0.000587661919735536 0.0546199106509752
 0.000587661919735536 0.0579499948628099
 0.000587661919735536 0.0611494875369257
 0.000587661919735536 0.0642183886733224
 0.000587661919735536 0.067156698272
 0.000587661919735536 0.0699644163329586
 0.000587661919735536 0.0726415428561983
 0.000587661919735536 0.075188077841719
 0.000587661919735536 0.0776040212895207
 0.000587661919735536 0.0798893731996033
 0.000587661919735536 0.0820441335719668
 0.000587661919735536 0.0840683024066115
 0.000587661919735536 0.0859618797035373
 0.000587661919735536 0.0877248654627438
 0.000587661919735536 0.0893572596842315
 0.000587661919735536 0.090859062368
 0.000587661919735536 0.0922302735140495
 0.000587661919735536 0.0934708931223803
 0.000587661919735536 0.0945809211929918
 0.000587661919735536 0.0955603577258844
 0.000587661919735536 0.0964092027210579
 0.000587661919735536 0.0971274561785125
 0.000587661919735536 0.0977151180982478
 0.000587661919735536 0.0981721884802644
 0.000587661919735536 0.098498667324562
 0.000587661919735536 0.0986945546311404
 0.000587661919735536 0.0987598504
 0.00104473230175206 0
 0.00104473230175206 6.52957688595041e-05
 0.00104473230175206 0.000261183075438017
 0.00104473230175206 0.000587661919735536
 0.00104473230175206 0.00104473230175206
 0.00104473230175206 0.0016323942214876
 0.00104473230175206 0.00235064767894214
 0.00104473230175206 0.0031994926741157
 0.00104473230175206 0.00417892920700827
 0.00104473230175206 0.00528895727761983
 0.00104473230175206 0.00652957688595041
 0.00104473230175206 0.007900788032
 0.00104473230175206 0.0094025907157686
 0.00104473230175206 0.0110349849372562
 0.00104473230175206 0.0127979706964628
 0.00104473230175206 0.0146915479933884
 0.00104473230175206 0.0167157168280331
 0.00104473230175206 0.0188704772003967
 0.00104473230175206 0.0211558291104793
 0.00104473230175206 0.023571772558281
 0.00104473230175206 0.0261183075438017
 0.00104473230175206 0.0287954340670413
 0.00104473230175206 0.031603152128
 0.00104473230175206 0.0345414617266777
 0.00104473230175206 0.0376103628630743
 0.00104473230175206 0.0408098555371901
 0.00104473230175206 0.0441399397490248
 0.00104473230175206 0.0476006154985786
 0.00104473230175206 0.0511592349014214
 0.00104473230175206 0.0546199106509752
 0.00104473230175206 0.0579499948628099
 0.00104473230175206 0.0611494875369257
 0.00104473230175206 0.0642183886733224
 0.00104473230175206 0.067156698272
 0.00104473230175206 0.0699644163329586
 0.00104473230175206 0.0726415428561983
 0.00104473230175206 0.075188077841719
 0.00104473230175206 0.0776040212895207
 0.00104473230175206 0.0798893731996033
 0.00104473230175206 0.0820441335719668
 0.00104473230175206 0.0840683024066115
 0.00104473230175206 0.0859618797035373
 0.00104473230175206 0.0877248654627438
 0.00104473230175206 0.0893572596842315
 0.00104473230175206 0.090859062368
 0.00104473230175206 0.0922302735140495
 0.00104473230175206 0.0934708931223803
 0.00104473230175206 0.0945809211929918
 0.00104473230175206 0.0955603577258844
 0.00104473230175206 0.0964092027210579
 0.00104473230175206 0.0971274561785125
 0.00104473230175206 0.0977151180982478
 0.00104473230175206 0.0981721884802644
 0.00104473230175206 0.098498667324562
 0.00104473230175206 0.0986945546311404
 0.00104473230175206 0.0987598504
 0.0016323942214876 0
 0.0016323942214876 6.52957688595041e-05
 0.0016323942214876 0.000261183075438017
 0.0016323942214876 0.000587661919735536
 0.0016323942214876 0.00104473230175206
 0.0016323942214876 0.0016323942214876
 0.0016323942214876 0.00235064767894214
 0.0016323942214876 0.0031994926741157
 0.0016323942214876 0.00417892920700827
 0.0016323942214876 0.00528895727761983
 0.0016323942214876 0.00652957688595041
 0.0016323942214876 0.007900788032
 0.0016323942214876 0.0094025907157686
 0.0016323942214876 0.0110349849372562
 0.0016323942214876 0.0127979706964628
 0.0016323942214876 0.0146915479933884
 0.0016323942214876 0.0167157168280331
 0.0016323942214876 0.0188704772003967
 0.0016323942214876 0.0211558291104793
 0.0016323942214876 0.023571772558281
 0.0016323942214876 0.0261183075438017
 0.0016323942214876 0.0287954340670413
 0.0016323942214876 0.031603152128
 0.0016323942214876 0.0345414617266777
 0.0016323942214876 0.0376103628630743
 0.0016323942214876 0.0408098555371901
 0.0016323942214876 0.0441399397490248
 0.0016323942214876 0.0476006154985786
 0.0016323942214876 0.0511592349014214
 0.0016323942214876 0.0546199106509752
 0.0016323942214876 0.0579499948628099
 0.0016323942214876 0.0611494875369257
 0.0016323942214876 0.0642183886733224
 0.0016323942214876 0.067156698272
 0.0016323942214876 0.0699644163329586
 0.0016323942214876 0.0726415428561983
 0.0016323942214876 0.075188077841719
 0.0016323942214876 0.0776040212895207
 0.0016323942214876 0.0798893731996033
 0.0016323942214876 0.0820441335719668
 0.0016323942214876 0.0840683024066115
 0.0016323942214876 0.0859618797035373
 0.0016323942214876 0.0877248654627438
 0.0016323942214876 0.0893572596842315
 0.0016323942214876 0.090859062368
 0.0016323942214876 0.0922302735140495
 0.0016323942214876 0.0934708931223803
 0.0016323942214876 0.0945809211929918
 0.0016323942214876 0.0955603577258844
 0.0016323942214876 0.0964092027210579
 0.0016323942214876 0.0971274561785125
 0.0016323942214876 0.0977151180982478
 0.0016323942214876 0.0981721884802644
 0.0016323942214876 0.098498667324562
 0.0016323942214876 0.0986945546311404
 0.0016323942214876 0.0987598504
 0.00235064767894214 0
 0.00235064767894214 6.52957688595041e-05
 0.00235064767894214 0.000261183075438017
 0.00235064767894214 0.000587661919735536
 0.00235064767894214 0.00104473230175206
 0.00235064767894214 0.0016323942214876
 0.00235064767894214 0.00235064767894214
 0.00235064767894214 0.0031994926741157
 0.00235064767894214 0.00417892920700827
 0.00235064767894214 0.00528895727761983
 0.00235064767894214 0.00652957688595041
 0.00235064767894214 0.007900788032
 0.00235064767894214 0.0094025907157686
 0.00235064767894214 0.0110349849372562
 0.00235064767894214 0.0127979706964628
 0.00235064767894214 0.0146915479933884
 0.00235064767894214 0.0167157168280331
 0.00235064767894214 0.0188704772003967
 0.00235064767894214 0.0211558291104793
 0.00235064767894214 0.023571772558281
 0.00235064767894214 0.0261183075438017
 0.00235064767894214 0.0287954340670413
 0.00235064767894214 0.031603152128
 0.00235064767894214 0.0345414617266777
 0.00235064767894214 0.0376103628630743
 0.00235064767894214 0.0408098555371901
 0.00235064767894214 0.0441399397490248
 0.00235064767894214 0.0476006154985786
 0.00235064767894214 0.0511592349014214
 0.00235064767894214 0.0546199106509752
 0.00235064767894214 0.0579499948628099
 0.00235064767894214 0.0611494875369257
 0.00235064767894214 0.0642183886733224
 0.00235064767894214 0.067156698272
 0.00235064767894214 0.0699644163329586
 0.00235064767894214 0.0726415428561983
 0.00235064767894214 0.075188077841719
 0.00235064767894214 0.0776040212895207
 0.00235064767894214 0.0798893731996033
 0.00235064767894214 0.0820441335719668
 0.00235064767894214 0.0840683024066115
 0.00235064767894214 0.0859618797035373
 0.00235064767894214 0.0877248654627438
 0.00235064767894214 0.0893572596842315
 0.00235064767894214 0.090859062368
 0.00235064767894214 0.0922302735140495
 0.00235064767894214 0.0934708931223803
 0.00235064767894214 0.0945809211929918
 0.00235064767894214 0.0955603577258844
 0.00235064767894214 0.0964092027210579
 0.00235064767894214 0.0971274561785125
 0.00235064767894214 0.0977151180982478
 0.00235064767894214 0.0981721884802644
 0.00235064767894214 0.098498667324562
 0.00235064767894214 0.0986945546311404
 0.00235064767894214 0.0987598504
 0.0031994926741157 0
 0.0031994926741157 6.52957688595041e-05
 0.0031994926741157 0.000261183075438017
 0.0031994926741157 0.000587661919735536
 0.0031994926741157 0.00104473230175206
 0.0031994926741157 0.0016323942214876
 0.0031994926741157 0.00235064767894214
 0.0031994926741157 0.0031994926741157
 0.0031994926741157 0.00417892920700827
 0.0031994926741157 0.00528895727761983
 0.0031994926741157 0.00652957688595041
 0.0031994926741157 0.007900788032
 0.0031994926741157 0.0094025907157686
 0.0031994926741157 0.0110349849372562
 0.0031994926741157 0.0127979706964628
 0.0031994926741157 0.0146915479933884
 0.0031994926741157 0.0167157168280331
 0.0031994926741157 0.0188704772003967
 0.0031994926741157 0.0211558291104793
 0.0031994926741157 0.023571772558281
 0.0031994926741157 0.0261183075438017
 0.0031994926741157 0.0287954340670413
 0.0031994926741157 0.031603152128
 0.0031994926741157 0.0345414617266777
 0.0031994926741157 0.0376103628630743
 0.0031994926741157 0.0408098555371901
 0.0031994926741157 0.0441399397490248
 0.0031994926741157 0.0476006154985786
 0.0031994926741157 0.0511592349014214
 0.0031994926741157 0.0546199106509752
 0.0031994926741157 0.0579499948628099
 0.0031994926741157 0.0611494875369257
 0.0031994926741157 0.0642183886733224
 0.0031994926741157 0.067156698272
 0.0031994926741157 0.0699644163329586
 0.0031994926741157 0.0726415428561983
 0.0031994926741157 0.075188077841719
 0.0031994926741157 0.0776040212895207
 0.0031994926741157 0.0798893731996033
 0.0031994926741157 0.0820441335719668
 0.0031994926741157 0.0840683024066115
 0.0031994926741157 0.0859618797035373
 0.0031994926741157 0.0877248654627438
 0.0031994926741157 0.0893572596842315
 0.0031994926741157 0.090859062368
 0.0031994926741157 0.0922302735140495
 0.0031994926741157 0.0934708931223803
 0.0031994926741157 0.0945809211929918
 0.0031994926741157 0.0955603577258844
 0.0031994926741157 0.0964092027210579
 0.0031994926741157 0.0971274561785125
 0.0031994926741157 0.0977151180982478
 0.0031994926741157 0.0981721884802644
 0.0031994926741157 0.098498667324562
 0.0031994926741157 0.0986945546311404
 0.0031994926741157 0.0987598504
 0.00417892920700827 0
 0.00417892920700827 6.52957688595041e-05
 0.00417892920700827 0.000261183075438017
 0.00417892920700827 0.000587661919735536
 0.00417892920700827 0.00104473230175206
 0.00417892920700827 0.0016323942214876
 0.00417892920700827 0.00235064767894214
 0.00417892920700827 0.0031994926741157
 0.00417892920700827 0.00417892920700827
 0.00417892920700827 0.00528895727761983
 0.00417892920700827 0.00652957688595041
 0.00417892920700827 0.007900788032
 0.00417892920700827 0.0094025907157686
 0.00417892920700827 0.0110349849372562
 0.00417892920700827 0.0127979706964628
 0.00417892920700827 0.0146915479933884
 0.00417892920700827 0.0167157168280331
 0.00417892920700827 0.0188704772003967
 0.00417892920700827 0.0211558291104793
 0.00417892920700827 0.023571772558281
 0.00417892920700827 0.0261183075438017
 0.00417892920700827 0.0287954340670413
 0.00417892920700827 0.031603152128
 0.00417892920700827 0.0345414617266777
 0.00417892920700827 0.0376103628630743
 0.00417892920700827 0.0408098555371901
 0.00417892920700827 0.0441399397490248
 0.00417892920700827 0.0476006154985786
 0.00417892920700827 0.0511592349014214
 0.00417892920700827 0.0546199106509752
 0.00417892920700827 0.0579499948628099
 0.00417892920700827 0.0611494875369257
 0.00417892920700827 0.0642183886733224
 0.00417892920700827 0.067156698272
 0.00417892920700827 0.0699644163329586
 0.00417892920700827 0.0726415428561983
 0.00417892920700827 0.075188077841719
 0.00417892920700827 0.0776040212895207
 0.00417892920700827 0.0798893731996033
 0.00417892920700827 0.0820441335719668
 0.00417892920700827 0.0840683024066115
 0.00417892920700827 0.0859618797035373
 0.00417892920700827 0.0877248654627438
 0.00417892920700827 0.0893572596842315
 0.00417892920700827 0.090859062368
 0.00417892920700827 0.0922302735140495
 0.00417892920700827 0.0934708931223803
 0.00417892920700827 0.0945809211929918
 0.00417892920700827 0.0955603577258844
 0.00417892920700827 0.0964092027210579
 0.00417892920700827 0.0971274561785125
 0.00417892920700827 0.0977151180982478
 0.00417892920700827 0.0981721884802644
 0.00417892920700827 0.098498667324562
 0.00417892920700827 0.0986945546311404
 0.00417892920700827 0.0987598504
 0.00528895727761983 0
 0.00528895727761983 6.52957688595041e-05
 0.00528895727761983 0.000261183075438017
 0.00528895727761983 0.000587661919735536
 0.00528895727761983 0.00104473230175206
 0.00528895727761983 0.0016323942214876
 0.00528895727761983 0.00235064767894214
 0.00528895727761983 0.0031994926741157
 0.00528895727761983 0.00417892920700827
 0.00528895727761983 0.00528895727761983
 0.00528895727761983 0.00652957688595041
 0.00528895727761983 0.007900788032
 0.00528895727761983 0.0094025907157686
 0.00528895727761983 0.0110349849372562
 0.00528895727761983 0.0127979706964628
 0.00528895727761983 0.0146915479933884
 0.00528895727761983 0.0167157168280331
 0.00528895727761983 0.0188704772003967
 0.00528895727761983 0.0211558291104793
 0.00528895727761983 0.023571772558281
 0.00528895727761983 0.0261183075438017
 0.00528895727761983 0.0287954340670413
 0.00528895727761983 0.031603152128
 0.00528895727761983 0.0345414617266777
 0.00528895727761983 0.0376103628630743
 0.00528895727761983 0.0408098555371901
 0.00528895727761983 0.0441399397490248
 0.00528895727761983 0.0476006154985786
 0.00528895727761983 0.0511592349014214
 0.00528895727761983 0.0546199106509752
 0.00528895727761983 0.0579499948628099
 0.00528895727761983 0.0611494875369257
 0.00528895727761983 0.0642183886733224
 0.00528895727761983 0.067156698272
 0.00528895727761983 0.0699644163329586
 0.00528895727761983 0.0726415428561983
 0.00528895727761983 0.075188077841719
 0.00528895727761983 0.0776040212895207
 0.00528895727761983 0.0798893731996033
 0.00528895727761983 0.0820441335719668
 0.00528895727761983 0.0840683024066115
 0.00528895727761983 0.0859618797035373
 0.00528895727761983 0.0877248654627438
 0.00528895727761983 0.0893572596842315
 0.00528895727761983 0.090859062368
 0.00528895727761983 0.0922302735140495
 0.00528895727761983 0.0934708931223803
 0.00528895727761983 0.0945809211929918
 0.00528895727761983 0.0955603577258844
 0.00528895727761983 0.0964092027210579
 0.00528895727761983 0.0971274561785125
 0.00528895727761983 0.0977151180982478
 0.00528895727761983 0.0981721884802644
 0.00528895727761983 0.098498667324562
 0.00528895727761983 0.0986945546311404
 0.00528895727761983 0.0987598504
 0.00652957688595041 0
 0.00652957688595041 6.52957688595041e-05
 0.00652957688595041 0.000261183075438017
 0.00652957688595041 0.000587661919735536
 0.00652957688595041 0.00104473230175206
 0.00652957688595041 0.0016323942214876
 0.00652957688595041 0.00235064767894214
 0.00652957688595041 0.0031994926741157
 0.00652957688595041 0.00417892920700827
 0.00652957688595041 0.00528895727761983
 0.00652957688595041 0.00652957688595041
 0.00652957688595041 0.007900788032
 0.00652957688595041 0.0094025907157686
 0.00652957688595041 0.0110349849372562
 0.00652957688595041 0.0127979706964628
 0.00652957688595041 0.0146915479933884
 0.00652957688595041 0.0167157168280331
 0.00652957688595041 0.0188704772003967
 0.00652957688595041 0.0211558291104793
 0.00652957688595041 0.023571772558281
 0.00652957688595041 0.0261183075438017
 0.00652957688595041 0.0287954340670413
 0.00652957688595041 0.031603152128
 0.00652957688595041 0.0345414617266777
 0.00652957688595041 0.0376103628630743
 0.00652957688595041 0.0408098555371901
 0.00652957688595041 0.0441399397490248
 0.00652957688595041 0.0476006154985786
 0.00652957688595041 0.0511592349014214
 0.00652957688595041 0.0546199106509752
 0.00652957688595041 0.0579499948628099
 0.00652957688595041 0.0611494875369257
 0.00652957688595041 0.0642183886733224
 0.00652957688595041 0.067156698272
 0.00652957688595041 0.0699644163329586
 0.00652957688595041 0.0726415428561983
 0.00652957688595041 0.075188077841719
 0.00652957688595041 0.0776040212895207
 0.00652957688595041 0.0798893731996033
 0.00652957688595041 0.0820441335719668
 0.00652957688595041 0.0840683024066115
 0.00652957688595041 0.0859618797035373
 0.00652957688595041 0.0877248654627438
 0.00652957688595041 0.0893572596842315
 0.00652957688595041 0.090859062368
 0.00652957688595041 0.0922302735140495
 0.00652957688595041 0.0934708931223803
 0.00652957688595041 0.0945809211929918
 0.00652957688595041 0.0955603577258844
 0.00652957688595041 0.0964092027210579
 0.00652957688595041 0.0971274561785125
 0.00652957688595041 0.0977151180982478
 0.00652957688595041 0.0981721884802644
 0.00652957688595041 0.098498667324562
 0.00652957688595041 0.0986945546311404
 0.00652957688595041 0.0987598504
 0.007900788032 0
 0.007900788032 6.52957688595041e-05
 0.007900788032 0.000261183075438017
 0.007900788032 0.000587661919735536
 0.007900788032 0.00104473230175206
 0.007900788032 0.0016323942214876
 0.007900788032 0.00235064767894214
 0.007900788032 0.0031994926741157
 0.007900788032 0.00417892920700827
 0.007900788032 0.00528895727761983
 0.007900788032 0.00652957688595041
 0.007900788032 0.007900788032
 0.007900788032 0.0094025907157686
 0.007900788032 0.0110349849372562
 0.007900788032 0.0127979706964628
 0.007900788032 0.0146915479933884
 0.007900788032 0.0167157168280331
 0.007900788032 0.0188704772003967
 0.007900788032 0.0211558291104793
 0.007900788032 0.023571772558281
 0.007900788032 0.0261183075438017
 0.007900788032 0.0287954340670413
 0.007900788032 0.031603152128
 0.007900788032 0.0345414617266777
 0.007900788032 0.0376103628630743
 0.007900788032 0.0408098555371901
 0.007900788032 0.0441399397490248
 0.007900788032 0.0476006154985786
 0.007900788032 0.0511592349014214
 0.007900788032 0.0546199106509752
 0.007900788032 0.0579499948628099
 0.007900788032 0.0611494875369257
 0.007900788032 0.0642183886733224
 0.007900788032 0.067156698272
 0.007900788032 0.0699644163329586
 0.007900788032 0.0726415428561983
 0.007900788032 0.075188077841719
 0.007900788032 0.0776040212895207
 0.007900788032 0.0798893731996033
 0.007900788032 0.0820441335719668
 0.007900788032 0.0840683024066115
 0.007900788032 0.0859618797035373
 0.007900788032 0.0877248654627438
 0.007900788032 0.0893572596842315
 0.007900788032 0.090859062368
 0.007900788032 0.0922302735140495
 0.007900788032 0.0934708931223803
 0.007900788032 0.0945809211929918
 0.007900788032 0.0955603577258844
 0.007900788032 0.0964092027210579
 0.007900788032 0.0971274561785125
 0.007900788032 0.0977151180982478
 0.007900788032 0.0981721884802644
 0.007900788032 0.098498667324562
 0.007900788032 0.0986945546311404
 0.007900788032 0.0987598504
 0.0094025907157686 0
 0.0094025907157686 6.52957688595041e-05
 0.0094025907157686 0.000261183075438017
 0.0094025907157686 0.000587661919735536
 0.0094025907157686 0.00104473230175206
 0.0094025907157686 0.0016323942214876
 0.0094025907157686 0.00235064767894214
 0.0094025907157686 0.0031994926741157
 0.0094025907157686 0.00417892920700827
 0.0094025907157686 0.00528895727761983
 0.0094025907157686 0.00652957688595041
 0.0094025907157686 0.007900788032
 0.0094025907157686 0.0094025907157686
 0.0094025907157686 0.0110349849372562
 0.0094025907157686 0.0127979706964628
 0.0094025907157686 0.0146915479933884
 0.0094025907157686 0.0167157168280331
 0.0094025907157686 0.0188704772003967
 0.0094025907157686 0.0211558291104793
 0.0094025907157686 0.023571772558281
 0.0094025907157686 0.0261183075438017
 0.0094025907157686 0.0287954340670413
 0.0094025907157686 0.031603152128
 0.0094025907157686 0.0345414617266777
 0.0094025907157686 0.0376103628630743
 0.0094025907157686 0.0408098555371901
 0.0094025907157686 0.0441399397490248
 0.0094025907157686 0.0476006154985786
 0.0094025907157686 0.0511592349014214
 0.0094025907157686 0.0546199106509752
 0.0094025907157686 0.0579499948628099
 0.0094025907157686 0.0611494875369257
 0.0094025907157686 0.0642183886733224
 0.0094025907157686 0.067156698272
 0.0094025907157686 0.0699644163329586
 0.0094025907157686 0.0726415428561983
 0.0094025907157686 0.075188077841719
 0.0094025907157686 0.0776040212895207
 0.0094025907157686 0.0798893731996033
 0.0094025907157686 0.0820441335719668
 0.0094025907157686 0.0840683024066115
 0.0094025907157686 0.0859618797035373
 0.0094025907157686 0.0877248654627438
 0.0094025907157686 0.0893572596842315
 0.0094025907157686 0.090859062368
 0.0094025907157686 0.0922302735140495
 0.0094025907157686 0.0934708931223803
 0.0094025907157686 0.0945809211929918
 0.0094025907157686 0.0955603577258844
 0.0094025907157686 0.0964092027210579
 0.0094025907157686 0.0971274561785125
 0.0094025907157686 0.0977151180982478
 0.0094025907157686 0.0981721884802644
 0.0094025907157686 0.098498667324562
 0.0094025907157686 0.0986945546311404
 0.0094025907157686 0.0987598504
 0.0110349849372562 0
 0.0110349849372562 6.52957688595041e-05
 0.0110349849372562 0.000261183075438017
 0.0110349849372562 0.000587661919735536
 0.0110349849372562 0.00104473230175206
 0.0110349849372562 0.0016323942214876
 0.0110349849372562 0.00235064767894214
 0.0110349849372562 0.0031994926741157
 0.0110349849372562 0.00417892920700827
 0.0110349849372562 0.00528895727761983
 0.0110349849372562 0.00652957688595041
 0.0110349849372562 0.007900788032
 0.0110349849372562 0.0094025907157686
 0.0110349849372562 0.0110349849372562
 0.0110349849372562 0.0127979706964628
 0.0110349849372562 0.0146915479933884
 0.0110349849372562 0.0167157168280331
 0.0110349849372562 0.0188704772003967
 0.0110349849372562 0.0211558291104793
 0.0110349849372562 0.023571772558281
 0.0110349849372562 0.0261183075438017
 0.0110349849372562 0.0287954340670413
 0.0110349849372562 0.031603152128
 0.0110349849372562 0.0345414617266777
 0.0110349849372562 0.0376103628630743
 0.0110349849372562 0.0408098555371901
 0.0110349849372562 0.0441399397490248
 0.0110349849372562 0.0476006154985786
 0.0110349849372562 0.0511592349014214
 0.0110349849372562 0.0546199106509752
 0.0110349849372562 0.0579499948628099
 0.0110349849372562 0.0611494875369257
 0.0110349849372562 0.0642183886733224
 0.0110349849372562 0.067156698272
 0.0110349849372562 0.0699644163329586
 0.0110349849372562 0.0726415428561983
 0.0110349849372562 0.075188077841719
 0.0110349849372562 0.0776040212895207
 0.0110349849372562 0.0798893731996033
 0.0110349849372562 0.0820441335719668
 0.0110349849372562 0.0840683024066115
 0.0110349849372562 0.0859618797035373
 0.0110349849372562 0.0877248654627438
 0.0110349849372562 0.0893572596842315
 0.0110349849372562 0.090859062368
 0.0110349849372562 0.0922302735140495
 0.0110349849372562 0.0934708931223803
 0.0110349849372562 0.0945809211929918
 0.0110349849372562 0.0955603577258844
 0.0110349849372562 0.0964092027210579
 0.0110349849372562 0.0971274561785125
 0.0110349849372562 0.0977151180982478
 0.0110349849372562 0.0981721884802644
 0.0110349849372562 0.098498667324562
 0.0110349849372562 0.0986945546311404
 0.0110349849372562 0.0987598504
 0.0127979706964628 0
 0.0127979706964628 6.52957688595041e-05
 0.0127979706964628 0.000261183075438017
 0.0127979706964628 0.000587661919735536
 0.0127979706964628 0.00104473230175206
 0.0127979706964628 0.0016323942214876
 0.0127979706964628 0.00235064767894214
 0.0127979706964628 0.0031994926741157