VARIABLES = "x" "y"
ZONE T="InnerCells" SOLUTIONTIME=0 DATAPACKING=POINT N=1225 E=2312 ZONETYPE=FETRIANGLE
 1 1
 1 0.9946265683363
 0.9946265683363 1
 1 0.9837108012167
 0.9946265683363 0.9946265683363
 0.9837108012167 1
 1 0.9688365351644
 0.9946265683363 0.9837108012167
 0.9837108012167 0.9946265683363
 0.9688365351644 1
 1 0.9506203830981
 0.9946265683363 0.9688365351644
 0.9837108012167 0.9837108012167
 0.9688365351644 0.9946265683363
 0.9506203830981 1
 1 0.9294326616516
 0.9946265683363 0.9506203830981
 0.9837108012167 0.9688365351644
 0.9688365351644 0.9837108012167
 0.9506203830981 0.9946265683363
 0.9294326616516 1
 1 0.9055300401577
 0.9946265683363 0.9294326616516
 0.9837108012167 0.9506203830981
 0.9688365351644 0.9688365351644
 0.9506203830981 0.9837108012167
 0.9294326616516 0.9946265683363
 0.9055300401577 1
 1 0.8791049291376
 0.9946265683363 0.9055300401577
 0.9837108012167 0.9294326616516
 0.9688365351644 0.9506203830981
 0.9506203830981 0.9688365351644
 0.9294326616516 0.9837108012167
 0.9055300401577 0.9946265683363
 0.8791049291376 1
 1 0.8503089932277
 0.9946265683363 0.8791049291376
 0.9837108012167 0.9055300401577
 0.9688365351644 0.9294326616516
 0.9506203830981 0.9506203830981
 0.9294326616516 0.9688365351644
 0.9055300401577 0.9837108012167
 0.8791049291376 0.9946265683363
 0.8503089932277 1
 1 0.8192660479659
 0.9946265683363 0.8503089932277
 0.9837108012167 0.8791049291376
 0.9688365351644 0.9055300401577
 0.9506203830981 0.9294326616516
 0.9294326616516 0.9506203830981
 0.9055300401577 0.9688365351644
 0.8791049291376 0.9837108012167
 0.8503089932277 0.9946265683363
 0.8192660479659 1
 1 0.7860798324216
 0.9946265683363 0.8192660479659
 0.9837108012167 0.8503089932277
 0.9688365351644 0.8791049291376
 0.9506203830981 0.9055300401577
 0.9294326616516 0.9294326616516
 0.9055300401577 0.9506203830981
 0.8791049291376 0.9688365351644
 0.8503089932277 0.9837108012167
 0.8192660479659 0.9946265683363
 0.7860798324216 1
 1 0.7508390222883
 0.9946265683363 0.7860798324216
 0.9837108012167 0.8192660479659
 0.9688365351644 0.8503089932277
 0.9506203830981 0.8791049291376
 0.9294326616516 0.9055300401577
 0.9055300401577 0.9294326616516
 0.8791049291376 0.9506203830981
 0.8503089932277 0.9688365351644
 0.8192660479659 0.9837108012167
 0.7860798324216 0.9946265683363
 0.7508390222883 1
 1 0.7136206336588
 0.9946265683363 0.7508390222883
 0.9837108012167 0.7860798324216
 0.9688365351644 0.8192660479659
 0.9506203830981 0.8503089932277
 0.9294326616516 0.8791049291376
 0.9055300401577 0.9055300401577
 0.8791049291376 0.9294326616516
 0.8503089932277 0.9506203830981
 0.8192660479659 0.9688365351644
 0.7860798324216 0.9837108012167
 0.7508390222883 0.9946265683363
 0.7136206336588 1
 1 0.6744924293607
 0.9946265683363 0.7136206336588
 0.9837108012167 0.7508390222883
 0.9688365351644 0.7860798324216
 0.9506203830981 0.8192660479659
 0.9294326616516 0.8503089932277
 0.9055300401577 0.8791049291376
 0.8791049291376 0.9055300401577
 0.8503089932277 0.9294326616516
 0.8192660479659 0.9506203830981
 0.7860798324216 0.9688365351644
 0.7508390222883 0.9837108012167
 0.7136206336588 0.9946265683363
 0.6744924293607 1
 1 0.6335146765688
 0.9946265683363 0.6744924293607
 0.9837108012167 0.7136206336588
 0.9688365351644 0.7508390222883
 0.9506203830981 0.7860798324216
 0.9294326616516 0.8192660479659
 0.9055300401577 0.8503089932277
 0.8791049291376 0.8791049291376
 0.8503089932277 0.9055300401577
 0.8192660479659 0.9294326616516
 0.7860798324216 0.9506203830981
 0.7508390222883 0.9688365351644
 0.7136206336588 0.9837108012167
 0.6744924293607 0.9946265683363
 0.6335146765688 1
 1 0.5907414656388
 0.9946265683363 0.6335146765688
 0.9837108012167 0.6744924293607
 0.9688365351644 0.7136206336588
 0.9506203830981 0.7508390222883
 0.9294326616516 0.7860798324216
 0.9055300401577 0.8192660479659
 0.8791049291376 0.8503089932277
 0.8503089932277 0.8791049291376
 0.8192660479659 0.9055300401577
 0.7860798324216 0.9294326616516
 0.7508390222883 0.9506203830981
 0.7136206336588 0.9688365351644
 0.6744924293607 0.9837108012167
 0.6335146765688 0.9946265683363
 0.5907414656388 1
 1 0.5462217223551
 0.9946265683363 0.5907414656388
 0.9837108012167 0.6335146765688
 0.9688365351644 0.6744924293607
 0.9506203830981 0.7136206336588
 0.9294326616516 0.7508390222883
 0.9055300401577 0.7860798324216
 0.8791049291376 0.8192660479659
 0.8503089932277 0.8503089932277
 0.8192660479659 0.8791049291376
 0.7860798324216 0.9055300401577
 0.7508390222883 0.9294326616516
 0.7136206336588 0.9506203830981
 0.6744924293607 0.9688365351644
 0.6335146765688 0.9837108012167
 0.5907414656388 0.9946265683363
 0.5462217223551 1
 1 0.5
 0.9946265683363 0.5462217223551
 0.9837108012167 0.5907414656388
 0.9688365351644 0.6335146765688
 0.9506203830981 0.6744924293607
 0.9294326616516 0.7136206336588
 0.9055300401577 0.7508390222883
 0.8791049291376 0.7860798324216
 0.8503089932277 0.8192660479659
 0.8192660479659 0.8503089932277
 0.7860798324216 0.8791049291376
 0.7508390222883 0.9055300401577
 0.7136206336588 0.9294326616516
 0.6744924293607 0.9506203830981
 0.6335146765688 0.9688365351644
 0.5907414656388 0.9837108012167
 0.5462217223551 0.9946265683363
 0.5 1
 1 0.4537782776449
 0.9946265683363 0.5
 0.9837108012167 0.5462217223551
 0.9688365351644 0.5907414656388
 0.9506203830981 0.6335146765688
 0.9294326616516 0.6744924293607
 0.9055300401577 0.7136206336588
 0.8791049291376 0.7508390222883
 0.8503089932277 0.7860798324216
 0.8192660479659 0.8192660479659
 0.7860798324216 0.8503089932277
 0.7508390222883 0.8791049291376
 0.7136206336588 0.9055300401577
 0.6744924293607 0.9294326616516
 0.6335146765688 0.9506203830981
 0.5907414656388 0.9688365351644
 0.5462217223551 0.9837108012167
 0.5 0.9946265683363
 0.4537782776449 1
 1 0.4092585343612
 0.9946265683363 0.4537782776449
 0.9837108012167 0.5
 0.9688365351644 0.5462217223551
 0.9506203830981 0.5907414656388
 0.9294326616516 0.6335146765688
 0.9055300401577 0.6744924293607
 0.8791049291376 0.7136206336588
 0.8503089932277 0.7508390222883
 0.8192660479659 0.7860798324216
 0.7860798324216 0.8192660479659
 0.7508390222883 0.8503089932277
 0.7136206336588 0.8791049291376
 0.6744924293607 0.9055300401577
 0.6335146765688 0.9294326616516
 0.5907414656388 0.9506203830981
 0.5462217223551 0.9688365351644
 0.5 0.9837108012167
 0.4537782776449 0.9946265683363
 0.4092585343612 1
 1 0.3664853234312
 0.9946265683363 0.4092585343612
 0.9837108012167 0.4537782776449
 0.9688365351644 0.5
 0.9506203830981 0.5462217223551
 0.9294326616516 0.5907414656388
 0.9055300401577 0.6335146765688
 0.8791049291376 0.6744924293607
 0.8503089932277 0.7136206336588
 0.8192660479659 0.7508390222883
 0.7860798324216 0.7860798324216
 0.7508390222883 0.8192660479659
 0.7136206336588 0.8503089932277
 0.6744924293607 0.8791049291376
 0.6335146765688 0.9055300401577
 0.5907414656388 0.9294326616516
 0.5462217223551 0.9506203830981
 0.5 0.9688365351644
 0.4537782776449 0.9837108012167
 0.4092585343612 0.9946265683363
 0.3664853234312 1
 1 0.3255075706393
 0.9946265683363 0.3664853234312
 0.9837108012167 0.4092585343612
 0.9688365351644 0.4537782776449
 0.9506203830981 0.5
 0.9294326616516 0.5462217223551
 0.9055300401577 0.5907414656388
 0.8791049291376 0.6335146765688
 0.8503089932277 0.6744924293607
 0.8192660479659 0.7136206336588
 0.7860798324216 0.7508390222883
 0.7508390222883 0.7860798324216
 0.7136206336588 0.8192660479659
 0.6744924293607 0.8503089932277
 0.6335146765688 0.8791049291376
 0.5907414656388 0.9055300401577
 0.5462217223551 0.9294326616516
 0.5 0.9506203830981
 0.4537782776449 0.9688365351644
 0.4092585343612 0.9837108012167
 0.3664853234312 0.9946265683363
 0.3255075706393 1
 1 0.2863793663412
 0.9946265683363 0.3255075706393
 0.9837108012167 0.3664853234312
 0.9688365351644 0.4092585343612
 0.9506203830981 0.4537782776449
 0.9294326616516 0.5
 0.9055300401577 0.5462217223551
 0.8791049291376 0.5907414656388
 0.8503089932277 0.6335146765688
 0.8192660479659 0.6744924293607
 0.7860798324216 0.7136206336588
 0.7508390222883 0.7508390222883
 0.7136206336588 0.7860798324216
 0.6744924293607 0.8192660479659
 0.6335146765688 0.8503089932277
 0.5907414656388 0.8791049291376
 0.5462217223551 0.9055300401577
 0.5 0.9294326616516
 0.4537782776449 0.9506203830981
 0.4092585343612 0.9688365351644
 0.3664853234312 0.9837108012167
 0.3255075706393 0.9946265683363
 0.2863793663412 1
 1 0.2491609777117
 0.9946265683363 0.2863793663412
 0.9837108012167 0.3255075706393
 0.9688365351644 0.3664853234312
 0.9506203830981 0.4092585343612
 0.9294326616516 0.4537782776449
 0.9055300401577 0.5
 0.8791049291376 0.5462217223551
 0.8503089932277 0.5907414656388
 0.8192660479659 0.6335146765688
 0.7860798324216 0.6744924293607
 0.7508390222883 0.7136206336588
 0.7136206336588 0.7508390222883
 0.6744924293607 0.7860798324216
 0.6335146765688 0.8192660479659
 0.5907414656388 0.8503089932277
 0.5462217223551 0.8791049291376
 0.5 0.9055300401577
 0.4537782776449 0.9294326616516
 0.4092585343612 0.9506203830981
 0.3664853234312 0.9688365351644
 0.3255075706393 0.9837108012167
 0.2863793663412 0.9946265683363
 0.2491609777117 1
 1 0.2139201675784
 0.9946265683363 0.2491609777117
 0.9837108012167 0.2863793663412
 0.9688365351644 0.3255075706393
 0.9506203830981 0.3664853234312
 0.9294326616516 0.4092585343612
 0.9055300401577 0.4537782776449
 0.8791049291376 0.5
 0.8503089932277 0.5462217223551
 0.8192660479659 0.5907414656388
 0.7860798324216 0.6335146765688
 0.7508390222883 0.6744924293607
 0.7136206336588 0.7136206336588
 0.6744924293607 0.7508390222883
 0.6335146765688 0.7860798324216
 0.5907414656388 0.8192660479659
 0.5462217223551 0.8503089932277
 0.5 0.8791049291376
 0.4537782776449 0.9055300401577
 0.4092585343612 0.9294326616516
 0.3664853234312 0.9506203830981
 0.3255075706393 0.9688365351644
 0.2863793663412 0.9837108012167
 0.2491609777117 0.9946265683363
 0.2139201675784 1
 1 0.1807339520341
 0.9946265683363 0.2139201675784
 0.9837108012167 0.2491609777117
 0.9688365351644 0.2863793663412
 0.9506203830981 0.3255075706393
 0.9294326616516 0.3664853234312
 0.9055300401577 0.4092585343612
 0.8791049291376 0.4537782776449
 0.8503089932277 0.5
 0.8192660479659 0.5462217223551
 0.7860798324216 0.5907414656388
 0.7508390222883 0.6335146765688
 0.7136206336588 0.6744924293607
 0.6744924293607 0.7136206336588
 0.6335146765688 0.7508390222883
 0.5907414656388 0.7860798324216
 0.5462217223551 0.8192660479659
 0.5 0.8503089932277
 0.4537782776449 0.8791049291376
 0.4092585343612 0.9055300401577
 0.3664853234312 0.9294326616516
 0.3255075706393 0.9506203830981
 0.2863793663412 0.9688365351644
 0.2491609777117 0.9837108012167
 0.2139201675784 0.9946265683363
 0.1807339520341 1
 1 0.1496910067723
 0.9946265683363 0.1807339520341
 0.9837108012167 0.2139201675784
 0.9688365351644 0.2491609777117
 0.9506203830981 0.2863793663412
 0.9294326616516 0.3255075706393
 0.9055300401577 0.3664853234312
 0.8791049291376 0.4092585343612
 0.8503089932277 0.4537782776449
 0.8192660479659 0.5
 0.7860798324216 0.5462217223551
 0.7508390222883 0.5907414656388
 0.7136206336588 0.6335146765688
 0.6744924293607 0.6744924293607
 0.6335146765688 0.7136206336588
 0.5907414656388 0.7508390222883
 0.5462217223551 0.7860798324216
 0.5 0.8192660479659
 0.4537782776449 0.8503089932277
 0.4092585343612 0.8791049291376
 0.3664853234312 0.9055300401577
 0.3255075706393 0.9294326616516
 0.2863793663412 0.9506203830981
 0.2491609777117 0.9688365351644
 0.2139201675784 0.9837108012167
 0.1807339520341 0.9946265683363
 0.1496910067723 1
 1 0.1208950708624
 0.9946265683363 0.1496910067723
 0.9837108012167 0.1807339520341
 0.9688365351644 0.2139201675784
 0.9506203830981 0.2491609777117
 0.9294326616516 0.2863793663412
 0.9055300401577 0.3255075706393
 0.8791049291376 0.3664853234312
 0.8503089932277 0.4092585343612
 0.8192660479659 0.4537782776449
 0.7860798324216 0.5
 0.7508390222883 0.5462217223551
 0.7136206336588 0.5907414656388
 0.6744924293607 0.6335146765688
 0.6335146765688 0.6744924293607
 0.5907414656388 0.7136206336588
 0.5462217223551 0.7508390222883
 0.5 0.7860798324216
 0.4537782776449 0.8192660479659
 0.4092585343612 0.8503089932277
 0.3664853234312 0.8791049291376
 0.3255075706393 0.9055300401577
 0.2863793663412 0.9294326616516
 0.2491609777117 0.9506203830981
 0.2139201675784 0.9688365351644
 0.1807339520341 0.9837108012167
 0.1496910067723 0.9946265683363
 0.1208950708624 1
 1 0.09446995984233
 0.9946265683363 0.1208950708624
 0.9837108012167 0.1496910067723
 0.9688365351644 0.1807339520341
 0.9506203830981 0.2139201675784
 0.9294326616516 0.2491609777117
 0.9055300401577 0.2863793663412
 0.8791049291376 0.3255075706393
 0.8503089932277 0.3664853234312
 0.8192660479659 0.4092585343612
 0.7860798324216 0.4537782776449
 0.7508390222883 0.5
 0.7136206336588 0.5462217223551
 0.6744924293607 0.5907414656388
 0.6335146765688 0.6335146765688
 0.5907414656388 0.6744924293607
 0.5462217223551 0.7136206336588
 0.5 0.7508390222883
 0.4537782776449 0.7860798324216
 0.4092585343612 0.8192660479659
 0.3664853234312 0.8503089932277
 0.3255075706393 0.8791049291376
 0.2863793663412 0.9055300401577
 0.2491609777117 0.9294326616516
 0.2139201675784 0.9506203830981
 0.1807339520341 0.9688365351644
 0.1496910067723 0.9837108012167
 0.1208950708624 0.9946265683363
 0.09446995984233 1
 1 0.07056733834838
 0.9946265683363 0.09446995984233
 0.9837108012167 0.1208950708624
 0.9688365351644 0.1496910067723
 0.9506203830981 0.1807339520341
 0.9294326616516 0.2139201675784
 0.9055300401577 0.2491609777117
 0.8791049291376 0.2863793663412
 0.8503089932277 0.3255075706393
 0.8192660479659 0.3664853234312
 0.7860798324216 0.4092585343612
 0.7508390222883 0.4537782776449
 0.7136206336588 0.5
 0.6744924293607 0.5462217223551
 0.6335146765688 0.5907414656388
 0.5907414656388 0.6335146765688
 0.5462217223551 0.6744924293607
 0.5 0.7136206336588
 0.4537782776449 0.7508390222883
 0.4092585343612 0.7860798324216
 0.3664853234312 0.8192660479659
 0.3255075706393 0.8503089932277
 0.2863793663412 0.8791049291376
 0.2491609777117 0.9055300401577
 0.2139201675784 0.9294326616516
 0.1807339520341 0.9506203830981
 0.1496910067723 0.9688365351644
 0.1208950708624 0.9837108012167
 0.09446995984233 0.9946265683363
 0.07056733834838 1
 1 0.04937961690192
 0.9946265683363 0.07056733834838
 0.9837108012167 0.09446995984233
 0.9688365351644 0.1208950708624
 0.9506203830981 0.1496910067723
 0.9294326616516 0.1807339520341
 0.9055300401577 0.2139201675784
 0.8791049291376 0.2491609777117
 0.8503089932277 0.2863793663412
 0.8192660479659 0.3255075706393
 0.7860798324216 0.3664853234312
 0.7508390222883 0.4092585343612
 0.7136206336588 0.4537782776449
 0.6744924293607 0.5
 0.6335146765688 0.5462217223551
 0.5907414656388 0.5907414656388
 0.5462217223551 0.6335146765688
 0.5 0.6744924293607
 0.4537782776449 0.7136206336588
 0.4092585343612 0.7508390222883
 0.3664853234312 0.7860798324216
 0.3255075706393 0.8192660479659
 0.2863793663412 0.8503089932277
 0.2491609777117 0.8791049291376
 0.2139201675784 0.9055300401577
 0.1807339520341 0.9294326616516
 0.1496910067723 0.9506203830981
 0.1208950708624 0.9688365351644
 0.09446995984233 0.9837108012167
 0.07056733834838 0.9946265683363
 0.04937961690192 1
 1 0.03116346483559
 0.9946265683363 0.04937961690192
 0.9837108012167 0.07056733834838
 0.9688365351644 0.09446995984233
 0.9506203830981 0.1208950708624
 0.9294326616516 0.1496910067723
 0.9055300401577 0.1807339520341
 0.8791049291376 0.2139201675784
 0.8503089932277 0.2491609777117
 0.8192660479659 0.2863793663412
 0.7860798324216 0.3255075706393
 0.7508390222883 0.3664853234312
 0.7136206336588 0.4092585343612
 0.6744924293607 0.4537782776449
 0.6335146765688 0.5
 0.5907414656388 0.5462217223551
 0.5462217223551 0.5907414656388
 0.5 0.6335146765688
 0.4537782776449 0.6744924293607
 0.4092585343612 0.7136206336588
 0.3664853234312 0.7508390222883
 0.3255075706393 0.7860798324216
 0.2863793663412 0.8192660479659
 0.2491609777117 0.8503089932277
 0.2139201675784 0.8791049291376
 0.1807339520341 0.9055300401577
 0.1496910067723 0.9294326616516
 0.1208950708624 0.9506203830981
 0.09446995984233 0.9688365351644
 0.07056733834838 0.9837108012167
 0.04937961690192 0.9946265683363
 0.03116346483559 1
 1 0.01628919878325
 0.9946265683363 0.03116346483559
 0.9837108012167 0.04937961690192
 0.9688365351644 0.07056733834838
 0.9506203830981 0.09446995984233
 0.9294326616516 0.1208950708624
 0.9055300401577 0.1496910067723
 0.8791049291376 0.1807339520341
 0.8503089932277 0.2139201675784
 0.8192660479659 0.2491609777117
 0.7860798324216 0.2863793663412
 0.7508390222883 0.3255075706393
 0.7136206336588 0.3664853234312
 0.6744924293607 0.4092585343612
 0.6335146765688 0.4537782776449
 0.5907414656388 0.5
 0.5462217223551 0.5462217223551
 0.5 0.5907414656388
 0.4537782776449 0.6335146765688
 0.4092585343612 0.6744924293607
 0.3664853234312 0.7136206336588
 0.3255075706393 0.7508390222883
 0.2863793663412 0.7860798324216
 0.2491609777117 0.8192660479659
 0.2139201675784 0.8503089932277
 0.1807339520341 0.8791049291376
 0.1496910067723 0.9055300401577
 0.1208950708624 0.9294326616516
 0.09446995984233 0.9506203830981
 0.07056733834838 0.9688365351644
 0.04937961690192 0.9837108012167
 0.03116346483559 0.9946265683363
 0.01628919878325 1
 1 0.005373431663664
 0.9946265683363 0.01628919878325
 0.9837108012167 0.03116346483559
 0.9688365351644 0.04937961690192
 0.9506203830981 0.07056733834838
 0.9294326616516 0.09446995984233
 0.9055300401577 0.1208950708624
 0.8791049291376 0.1496910067723
 0.8503089932277 0.1807339520341
 0.8192660479659 0.2139201675784
 0.7860798324216 0.2491609777117
 0.7508390222883 0.2863793663412
 0.7136206336588 0.3255075706393
 0.6744924293607 0.3664853234312
 0.6335146765688 0.4092585343612
 0.5907414656388 0.4537782776449
 0.5462217223551 0.5
 0.5 0.5462217223551
 0.4537782776449 0.5907414656388
 0.4092585343612 0.6335146765688
 0.3664853234312 0.6744924293607
 0.3255075706393 0.7136206336588
 0.2863793663412 0.7508390222883
 0.2491609777117 0.7860798324216
 0.2139201675784 0.8192660479659
 0.1807339520341 0.8503089932277
 0.1496910067723 0.8791049291376
 0.1208950708624 0.9055300401577
 0.09446995984233 0.9294326616516
 0.07056733834838 0.9506203830981
 0.04937961690192 0.9688365351644
 0.03116346483559 0.9837108012167
 0.01628919878325 0.9946265683363
 0.005373431663664 1
 1 0
 0.9946265683363 0.005373431663664
 0.9837108012167 0.01628919878325
 0.9688365351644 0.03116346483559
 0.9506203830981 0.04937961690192
 0.9294326616516 0.07056733834838
 0.9055300401577 0.09446995984233
 0.8791049291376 0.1208950708624
 0.8503089932277 0.1496910067723
 0.8192660479659 0.1807339520341
 0.7860798324216 0.2139201675784
 0.7508390222883 0.2491609777117
 0.7136206336588 0.2863793663412
 0.6744924293607 0.3255075706393
 0.6335146765688 0.3664853234312
 0.5907414656388 0.4092585343612
 0.5462217223551 0.4537782776449
 0.5 0.5
 0.4537782776449 0.5462217223551
 0.4092585343612 0.5907414656388
 0.3664853234312 0.6335146765688
 0.3255075706393 0.6744924293607
 0.2863793663412 0.7136206336588
 0.2491609777117 0.7508390222883
 0.2139201675784 0.7860798324216
 0.1807339520341 0.8192660479659
 0.1496910067723 0.8503089932277
 0.1208950708624 0.8791049291376
 0.09446995984233 0.9055300401577
 0.07056733834838 0.9294326616516
 0.04937961690192 0.9506203830981
 0.03116346483559 0.9688365351644
 0.01628919878325 0.9837108012167
 0.005373431663664 0.9946265683363
 0 1
 0.9946265683363 0
 0.9837108012167 0.005373431663664
 0.9688365351644 0.01628919878325
 0.9506203830981 0.03116346483559
 0.9294326616516 0.04937961690192
 0.9055300401577 0.07056733834838
 0.8791049291376 0.09446995984233
 0.8503089932277 0.1208950708624
 0.8192660479659 0.1496910067723
 0.7860798324216 0.1807339520341
 0.7508390222883 0.2139201675784
 0.7136206336588 0.2491609777117
 0.6744924293607 0.2863793663412
 0.6335146765688 0.3255075706393
 0.5907414656388 0.3664853234312
 0.5462217223551 0.4092585343612
 0.5 0.4537782776449
 0.4537782776449 0.5
 0.4092585343612 0.5462217223551
 0.3664853234312 0.5907414656388
 0.3255075706393 0.6335146765688
 0.2863793663412 0.6744924293607
 0.2491609777117 0.7136206336588
 0.2139201675784 0.7508390222883
 0.1807339520341 0.7860798324216
 0.1496910067723 0.8192660479659
 0.1208950708624 0.8503089932277
 0.09446995984233 0.8791049291376
 0.07056733834838 0.9055300401577
 0.04937961690192 0.9294326616516
 0.03116346483559 0.9506203830981
 0.01628919878325 0.9688365351644
 0.005373431663664 0.9837108012167
 0 0.9946265683363
 0.9837108012167 0
 0.9688365351644 0.005373431663664
 0.9506203830981 0.01628919878325
 0.9294326616516 0.03116346483559
 0.9055300401577 0.04937961690192
 0.8791049291376 0.07056733834838
 0.8503089932277 0.09446995984233
 0.8192660479659 0.1208950708624
 0.7860798324216 0.1496910067723
 0.7508390222883 0.1807339520341
 0.7136206336588 0.2139201675784
 0.6744924293607 0.2491609777117
 0.6335146765688 0.2863793663412
 0.5907414656388 0.3255075706393
 0.5462217223551 0.3664853234312
 0.5 0.4092585343612
 0.4537782776449 0.4537782776449
 0.4092585343612 0.5
 0.3664853234312 0.5462217223551
 0.3255075706393 0.5907414656388
 0.2863793663412 0.6335146765688
 0.2491609777117 0.6744924293607
 0.2139201675784 0.7136206336588
 0.1807339520341 0.7508390222883
 0.1496910067723 0.7860798324216
 0.1208950708624 0.8192660479659
 0.09446995984233 0.8503089932277
 0.07056733834838 0.8791049291376
 0.04937961690192 0.9055300401577
 0.03116346483559 0.9294326616516
 0.01628919878325 0.9506203830981
 0.005373431663664 0.9688365351644
 0 0.9837108012167
 0.9688365351644 0
 0.9506203830981 0.005373431663664
 0.9294326616516 0.01628919878325
 0.9055300401577 0.03116346483559
 0.8791049291376 0.04937961690192
 0.8503089932277 0.07056733834838
 0.8192660479659 0.09446995984233
 0.7860798324216 0.1208950708624
 0.7508390222883 0.1496910067723
 0.7136206336588 0.1807339520341
 0.6744924293607 0.2139201675784
 0.6335146765688 0.2491609777117
 0.5907414656388 0.2863793663412
 0.5462217223551 0.3255075706393
 0.5 0.3664853234312
 0.4537782776449 0.4092585343612
 0.4092585343612 0.4537782776449
 0.3664853234312 0.5
 0.3255075706393 0.5462217223551
 0.2863793663412 0.5907414656388
 0.2491609777117 0.6335146765688
 0.2139201675784 0.6744924293607
 0.1807339520341 0.7136206336588
 0.1496910067723 0.7508390222883
 0.1208950708624 0.7860798324216
 0.09446995984233 0.8192660479659
 0.07056733834838 0.8503089932277
 0.04937961690192 0.8791049291376
 0.03116346483559 0.9055300401577
 0.01628919878325 0.9294326616516
 0.005373431663664 0.9506203830981
 0 0.9688365351644
 0.9506203830981 0
 0.9294326616516 0.005373431663664
 0.9055300401577 0.01628919878325
 0.8791049291376 0.03116346483559
 0.8503089932277 0.04937961690192
 0.8192660479659 0.07056733834838
 0.7860798324216 0.09446995984233
 0.7508390222883 0.1208950708624
 0.7136206336588 0.1496910067723
 0.6744924293607 0.1807339520341
 0.6335146765688 0.2139201675784
 0.5907414656388 0.2491609777117
 0.5462217223551 0.2863793663412
 0.5 0.3255075706393
 0.4537782776449 0.3664853234312
 0.4092585343612 0.4092585343612
 0.3664853234312 0.4537782776449
 0.3255075706393 0.5
 0.2863793663412 0.5462217223551
 0.2491609777117 0.5907414656388
 0.2139201675784 0.6335146765688
 0.1807339520341 0.6744924293607
 0.1496910067723 0.7136206336588
 0.1208950708624 0.7508390222883
 0.09446995984233 0.7860798324216
 0.07056733834838 0.8192660479659
 0.04937961690192 0.8503089932277
 0.03116346483559 0.8791049291376
 0.01628919878325 0.9055300401577
 0.005373431663664 0.9294326616516
 0 0.9506203830981
 0.9294326616516 0
 0.9055300401577 0.005373431663664
 0.8791049291376 0.01628919878325
 0.8503089932277 0.03116346483559
 0.8192660479659 0.04937961690192
 0.7860798324216 0.07056733834838
 0.7508390222883 0.09446995984233
 0.7136206336588 0.1208950708624
 0.6744924293607 0.1496910067723
 0.6335146765688 0.1807339520341
 0.5907414656388 0.2139201675784
 0.5462217223551 0.2491609777117
 0.5 0.2863793663412
 0.4537782776449 0.3255075706393
 0.4092585343612 0.3664853234312
 0.3664853234312 0.4092585343612
 0.3255075706393 0.4537782776449
 0.2863793663412 0.5
 0.2491609777117 0.5462217223551
 0.2139201675784 0.5907414656388
 0.1807339520341 0.6335146765688
 0.1496910067723 0.6744924293607
 0.1208950708624 0.7136206336588
 0.09446995984233 0.7508390222883
 0.07056733834838 0.7860798324216
 0.04937961690192 0.8192660479659
 0.03116346483559 0.8503089932277
 0.01628919878325 0.8791049291376
 0.005373431663664 0.9055300401577
 0 0.9294326616516
 0.9055300401577 0
 0.8791049291376 0.005373431663664
 0.8503089932277 0.01628919878325
 0.8192660479659 0.03116346483559
 0.7860798324216 0.04937961690192
 0.7508390222883 0.07056733834838
 0.7136206336588 0.09446995984233
 0.6744924293607 0.1208950708624
 0.6335146765688 0.1496910067723
 0.5907414656388 0.1807339520341
 0.5462217223551 0.2139201675784
 0.5 0.2491609777117
 0.4537782776449 0.2863793663412
 0.4092585343612 0.3255075706393
 0.3664853234312 0.3664853234312
 0.3255075706393 0.4092585343612
 0.2863793663412 0.4537782776449
 0.2491609777117 0.5
 0.2139201675784 0.5462217223551
 0.1807339520341 0.5907414656388
 0.1496910067723 0.6335146765688
 0.1208950708624 0.6744924293607
 0.09446995984233 0.7136206336588
 0.07056733834838 0.7508390222883
 0.04937961690192 0.7860798324216
 0.03116346483559 0.8192660479659
 0.01628919878325 0.8503089932277
 0.005373431663664 0.8791049291376
 0 0.9055300401577
 0.8791049291376 0
 0.8503089932277 0.005373431663664
 0.8192660479659 0.01628919878325
 0.7860798324216 0.03116346483559
 0.7508390222883 0.04937961690192
 0.7136206336588 0.07056733834838
 0.6744924293607 0.09446995984233
 0.6335146765688 0.1208950708624
 0.5907414656388 0.1496910067723
 0.5462217223551 0.1807339520341
 0.5 0.2139201675784
 0.4537782776449 0.2491609777117
 0.4092585343612 0.2863793663412
 0.3664853234312 0.3255075706393
 0.3255075706393 0.3664853234312
 0.2863793663412 0.4092585343612
 0.2491609777117 0.4537782776449
 0.2139201675784 0.5
 0.1807339520341 0.5462217223551
 0.1496910067723 0.5907414656388
 0.1208950708624 0.6335146765688
 0.09446995984233 0.6744924293607
 0.07056733834838 0.7136206336588
 0.04937961690192 0.7508390222883
 0.03116346483559 0.7860798324216
 0.01628919878325 0.8192660479659
 0.005373431663664 0.8503089932277
 0 0.8791049291376
 0.8503089932277 0
 0.8192660479659 0.005373431663664
 0.7860798324216 0.01628919878325
 0.7508390222883 0.03116346483559
 0.7136206336588 0.04937961690192
 0.6744924293607 0.07056733834838
 0.6335146765688 0.09446995984233
 0.5907414656388 0.1208950708624
 0.5462217223551 0.1496910067723
 0.5 0.1807339520341
 0.4537782776449 0.2139201675784
 0.4092585343612 0.2491609777117
 0.3664853234312 0.2863793663412
 0.3255075706393 0.3255075706393
 0.2863793663412 0.3664853234312
 0.2491609777117 0.4092585343612
 0.2139201675784 0.4537782776449
 0.1807339520341 0.5
 0.1496910067723 0.5462217223551
 0.1208950708624 0.5907414656388
 0.09446995984233 0.6335146765688
 0.07056733834838 0.6744924293607
 0.04937961690192 0.7136206336588
 0.03116346483559 0.7508390222883
 0.01628919878325 0.7860798324216
 0.005373431663664 0.8192660479659
 0 0.8503089932277
 0.8192660479659 0
 0.7860798324216 0.005373431663664
 0.7508390222883 0.01628919878325
 0.7136206336588 0.03116346483559
 0.6744924293607 0.04937961690192
 0.6335146765688 0.07056733834838
 0.5907414656388 0.09446995984233
 0.5462217223551 0.1208950708624
 0.5 0.1496910067723
 0.4537782776449 0.1807339520341
 0.4092585343612 0.2139201675784
 0.3664853234312 0.2491609777117
 0.3255075706393 0.2863793663412
 0.2863793663412 0.3255075706393
 0.2491609777117 0.3664853234312
 0.2139201675784 0.4092585343612
 0.1807339520341 0.4537782776449
 0.1496910067723 0.5
 0.1208950708624 0.5462217223551
 0.09446995984233 0.5907414656388
 0.07056733834838 0.6335146765688
 0.04937961690192 0.6744924293607
 0.03116346483559 0.7136206336588
 0.01628919878325 0.7508390222883
 0.005373431663664 0.7860798324216
 0 0.8192660479659
 0.7860798324216 0
 0.7508390222883 0.005373431663664
 0.7136206336588 0.01628919878325
 0.6744924293607 0.03116346483559
 0.6335146765688 0.04937961690192
 0.5907414656388 0.07056733834838
 0.5462217223551 0.09446995984233
 0.5 0.1208950708624
 0.4537782776449 0.1496910067723
 0.4092585343612 0.1807339520341
 0.3664853234312 0.2139201675784
 0.3255075706393 0.2491609777117
 0.2863793663412 0.2863793663412
 0.2491609777117 0.3255075706393
 0.2139201675784 0.3664853234312
 0.1807339520341 0.4092585343612
 0.1496910067723 0.4537782776449
 0.1208950708624 0.5
 0.09446995984233 0.5462217223551
 0.07056733834838 0.5907414656388
 0.04937961690192 0.6335146765688
 0.03116346483559 0.6744924293607
 0.01628919878325 0.7136206336588
 0.005373431663664 0.7508390222883
 0 0.7860798324216
 0.7508390222883 0
 0.7136206336588 0.005373431663664
 0.6744924293607 0.01628919878325
 0.6335146765688 0.03116346483559
 0.5907414656388 0.04937961690192
 0.5462217223551 0.07056733834838
 0.5 0.09446995984233
 0.4537782776449 0.1208950708624
 0.4092585343612 0.1496910067723
 0.3664853234312 0.1807339520341
 0.3255075706393 0.2139201675784
 0.2863793663412 0.2491609777117
 0.2491609777117 0.2863793663412
 0.2139201675784 0.3255075706393
 0.1807339520341 0.3664853234312
 0.1496910067723 0.4092585343612
 0.1208950708624 0.4537782776449
 0.09446995984233 0.5
 0.07056733834838 0.5462217223551
 0.04937961690192 0.5907414656388
 0.03116346483559 0.6335146765688
 0.01628919878325 0.6744924293607
 0.005373431663664 0.7136206336588
 0 0.7508390222883
 0.7136206336588 0
 0.6744924293607 0.005373431663664
 0.6335146765688 0.01628919878325
 0.5907414656388 0.03116346483559
 0.5462217223551 0.04937961690192
 0.5 0.07056733834838
 0.4537782776449 0.09446995984233
 0.4092585343612 0.1208950708624
 0.3664853234312 0.1496910067723
 0.3255075706393 0.1807339520341
 0.2863793663412 0.2139201675784