VARIABLES = "x" "y" "z"
ZONE T="InnerCells" SOLUTIONTIME=0 DATAPACKING=POINT N=2816 E=13500 ZONETYPE=FETETRAHEDRON
 0 0 0
 0 0 2
 0 0 4
 0 0 6
 0 0 8
 0 0 10
 0 0 12
 0 0 14
 0 0 16
 0 0 18
 0 0 20
 0 0.02256691729772 0
 0 0.02256691729772 2
 0 0.02256691729772 4
 0 0.02256691729772 6
 0 0.02256691729772 8
 0 0.02256691729772 10
 0 0.02256691729772 12
 0 0.02256691729772 14
 0 0.02256691729772 16
 0 0.02256691729772 18
 0 0.02256691729772 20
 0 0.0595544517922 0
 0 0.0595544517922 2
 0 0.0595544517922 4
 0 0.0595544517922 6
 0 0.0595544517922 8
 0 0.0595544517922 10
 0 0.0595544517922 12
 0 0.0595544517922 14
 0 0.0595544517922 16
 0 0.0595544517922 18
 0 0.0595544517922 20
 0 0.1050611121762 0
 0 0.1050611121762 2
 0 0.1050611121762 4
 0 0.1050611121762 6
 0 0.1050611121762 8
 0 0.1050611121762 10
 0 0.1050611121762 12
 0 0.1050611121762 14
 0 0.1050611121762 16
 0 0.1050611121762 18
 0 0.1050611121762 20
 0 0.1571651405231 0
 0 0.1571651405231 2
 0 0.1571651405231 4
 0 0.1571651405231 6
 0 0.1571651405231 8
 0 0.1571651405231 10
 0 0.1571651405231 12
 0 0.1571651405231 14
 0 0.1571651405231 16
 0 0.1571651405231 18
 0 0.1571651405231 20
 0 0.2147980049924 0
 0 0.2147980049924 2
 0 0.2147980049924 4
 0 0.2147980049924 6
 0 0.2147980049924 8
 0 0.2147980049924 10
 0 0.2147980049924 12
 0 0.2147980049924 14
 0 0.2147980049924 16
 0 0.2147980049924 18
 0 0.2147980049924 20
 0 0.2772579372621 0
 0 0.2772579372621 2
 0 0.2772579372621 4
 0 0.2772579372621 6
 0 0.2772579372621 8
 0 0.2772579372621 10
 0 0.2772579372621 12
 0 0.2772579372621 14
 0 0.2772579372621 16
 0 0.2772579372621 18
 0 0.2772579372621 20
 0 0.3440404391444 0
 0 0.3440404391444 2
 0 0.3440404391444 4
 0 0.3440404391444 6
 0 0.3440404391444 8
 0 0.3440404391444 10
 0 0.3440404391444 12
 0 0.3440404391444 14
 0 0.3440404391444 16
 0 0.3440404391444 18
 0 0.3440404391444 20
 0 0.414761292436 0
 0 0.414761292436 2
 0 0.414761292436 4
 0 0.414761292436 6
 0 0.414761292436 8
 0 0.414761292436 10
 0 0.414761292436 12
 0 0.414761292436 14
 0 0.414761292436 16
 0 0.414761292436 18
 0 0.414761292436 20
 0 0.4891158657636 0
 0 0.4891158657636 2
 0 0.4891158657636 4
 0 0.4891158657636 6
 0 0.4891158657636 8
 0 0.4891158657636 10
 0 0.4891158657636 12
 0 0.4891158657636 14
 0 0.4891158657636 16
 0 0.4891158657636 18
 0 0.4891158657636 20
 0 0.5668553336115 0
 0 0.5668553336115 2
 0 0.5668553336115 4
 0 0.5668553336115 6
 0 0.5668553336115 8
 0 0.5668553336115 10
 0 0.5668553336115 12
 0 0.5668553336115 14
 0 0.5668553336115 16
 0 0.5668553336115 18
 0 0.5668553336115 20
 0 0.6477717387994 0
 0 0.6477717387994 2
 0 0.6477717387994 4
 0 0.6477717387994 6
 0 0.6477717387994 8
 0 0.6477717387994 10
 0 0.6477717387994 12
 0 0.6477717387994 14
 0 0.6477717387994 16
 0 0.6477717387994 18
 0 0.6477717387994 20
 0 0.7316880830837 0
 0 0.7316880830837 2
 0 0.7316880830837 4
 0 0.7316880830837 6
 0 0.7316880830837 8
 0 0.7316880830837 10
 0 0.7316880830837 12
 0 0.7316880830837 14
 0 0.7316880830837 16
 0 0.7316880830837 18
 0 0.7316880830837 20
 0 0.8184514652681 0
 0 0.8184514652681 2
 0 0.8184514652681 4
 0 0.8184514652681 6
 0 0.8184514652681 8
 0 0.8184514652681 10
 0 0.8184514652681 12
 0 0.8184514652681 14
 0 0.8184514652681 16
 0 0.8184514652681 18
 0 0.8184514652681 20
 0 0.9079281621535 0
 0 0.9079281621535 2
 0 0.9079281621535 4
 0 0.9079281621535 6
 0 0.9079281621535 8
 0 0.9079281621535 10
 0 0.9079281621535 12
 0 0.9079281621535 14
 0 0.9079281621535 16
 0 0.9079281621535 18
 0 0.9079281621535 20
 0 1 0
 0 1 2
 0 1 4
 0 1 6
 0 1 8
 0 1 10
 0 1 12
 0 1 14
 0 1 16
 0 1 18
 0 1 20
 0.2256691729772 0 0
 0.2256691729772 0 2
 0.2256691729772 0 4
 0.2256691729772 0 6
 0.2256691729772 0 8
 0.2256691729772 0 10
 0.2256691729772 0 12
 0.2256691729772 0 14
 0.2256691729772 0 16
 0.2256691729772 0 18
 0.2256691729772 0 20
 0.2256691729772 0.02256691729772 0
 0.2256691729772 0.02256691729772 2
 0.2256691729772 0.02256691729772 4
 0.2256691729772 0.02256691729772 6
 0.2256691729772 0.02256691729772 8
 0.2256691729772 0.02256691729772 10
 0.2256691729772 0.02256691729772 12
 0.2256691729772 0.02256691729772 14
 0.2256691729772 0.02256691729772 16
 0.2256691729772 0.02256691729772 18
 0.2256691729772 0.02256691729772 20
 0.2256691729772 0.0595544517922 0
 0.2256691729772 0.0595544517922 2
 0.2256691729772 0.0595544517922 4
 0.2256691729772 0.0595544517922 6
 0.2256691729772 0.0595544517922 8
 0.2256691729772 0.0595544517922 10
 0.2256691729772 0.0595544517922 12
 0.2256691729772 0.0595544517922 14
 0.2256691729772 0.0595544517922 16
 0.2256691729772 0.0595544517922 18
 0.2256691729772 0.0595544517922 20
 0.2256691729772 0.1050611121762 0
 0.2256691729772 0.1050611121762 2
 0.2256691729772 0.1050611121762 4
 0.2256691729772 0.1050611121762 6
 0.2256691729772 0.1050611121762 8
 0.2256691729772 0.1050611121762 10
 0.2256691729772 0.1050611121762 12
 0.2256691729772 0.1050611121762 14
 0.2256691729772 0.1050611121762 16
 0.2256691729772 0.1050611121762 18
 0.2256691729772 0.1050611121762 20
 0.2256691729772 0.1571651405231 0
 0.2256691729772 0.1571651405231 2
 0.2256691729772 0.1571651405231 4
 0.2256691729772 0.1571651405231 6
 0.2256691729772 0.1571651405231 8
 0.2256691729772 0.1571651405231 10
 0.2256691729772 0.1571651405231 12
 0.2256691729772 0.1571651405231 14
 0.2256691729772 0.1571651405231 16
 0.2256691729772 0.1571651405231 18
 0.2256691729772 0.1571651405231 20
 0.2256691729772 0.2147980049924 0
 0.2256691729772 0.2147980049924 2
 0.2256691729772 0.2147980049924 4
 0.2256691729772 0.2147980049924 6
 0.2256691729772 0.2147980049924 8
 0.2256691729772 0.2147980049924 10
 0.2256691729772 0.2147980049924 12
 0.2256691729772 0.2147980049924 14
 0.2256691729772 0.2147980049924 16
 0.2256691729772 0.2147980049924 18
 0.2256691729772 0.2147980049924 20
 0.2256691729772 0.2772579372621 0
 0.2256691729772 0.2772579372621 2
 0.2256691729772 0.2772579372621 4
 0.2256691729772 0.2772579372621 6
 0.2256691729772 0.2772579372621 8
 0.2256691729772 0.2772579372621 10
 0.2256691729772 0.2772579372621 12
 0.2256691729772 0.2772579372621 14
 0.2256691729772 0.2772579372621 16
 0.2256691729772 0.2772579372621 18
 0.2256691729772 0.2772579372621 20
 0.2256691729772 0.3440404391444 0
 0.2256691729772 0.3440404391444 2
 0.2256691729772 0.3440404391444 4
 0.2256691729772 0.3440404391444 6
 0.2256691729772 0.3440404391444 8
 0.2256691729772 0.3440404391444 10
 0.2256691729772 0.3440404391444 12
 0.2256691729772 0.3440404391444 14
 0.2256691729772 0.3440404391444 16
 0.2256691729772 0.3440404391444 18
 0.2256691729772 0.3440404391444 20
 0.2256691729772 0.414761292436 0
 0.2256691729772 0.414761292436 2
 0.2256691729772 0.414761292436 4
 0.2256691729772 0.414761292436 6
 0.2256691729772 0.414761292436 8
 0.2256691729772 0.414761292436 10
 0.2256691729772 0.414761292436 12
 0.2256691729772 0.414761292436 14
 0.2256691729772 0.414761292436 16
 0.2256691729772 0.414761292436 18
 0.2256691729772 0.414761292436 20
 0.2256691729772 0.4891158657636 0
 0.2256691729772 0.4891158657636 2
 0.2256691729772 0.4891158657636 4
 0.2256691729772 0.4891158657636 6
 0.2256691729772 0.4891158657636 8
 0.2256691729772 0.4891158657636 10
 0.2256691729772 0.4891158657636 12
 0.2256691729772 0.4891158657636 14
 0.2256691729772 0.4891158657636 16
 0.2256691729772 0.4891158657636 18
 0.2256691729772 0.4891158657636 20
 0.2256691729772 0.5668553336115 0
 0.2256691729772 0.5668553336115 2
 0.2256691729772 0.5668553336115 4
 0.2256691729772 0.5668553336115 6
 0.2256691729772 0.5668553336115 8
 0.2256691729772 0.5668553336115 10
 0.2256691729772 0.5668553336115 12
 0.2256691729772 0.5668553336115 14
 0.2256691729772 0.5668553336115 16
 0.2256691729772 0.5668553336115 18
 0.2256691729772 0.5668553336115 20
 0.2256691729772 0.6477717387994 0
 0.2256691729772 0.6477717387994 2
 0.2256691729772 0.6477717387994 4
 0.2256691729772 0.6477717387994 6
 0.2256691729772 0.6477717387994 8
 0.2256691729772 0.6477717387994 10
 0.2256691729772 0.6477717387994 12
 0.2256691729772 0.6477717387994 14
 0.2256691729772 0.6477717387994 16
 0.2256691729772 0.6477717387994 18
 0.2256691729772 0.6477717387994 20
 0.2256691729772 0.7316880830837 0
 0.2256691729772 0.7316880830837 2
 0.2256691729772 0.7316880830837 4
 0.2256691729772 0.7316880830837 6
 0.2256691729772 0.7316880830837 8
 0.2256691729772 0.7316880830837 10
 0.2256691729772 0.7316880830837 12
 0.2256691729772 0.7316880830837 14
 0.2256691729772 0.7316880830837 16
 0.2256691729772 0.7316880830837 18
 0.2256691729772 0.7316880830837 20
 0.2256691729772 0.8184514652681 0
 0.2256691729772 0.8184514652681 2
 0.2256691729772 0.8184514652681 4
 0.2256691729772 0.8184514652681 6
 0.2256691729772 0.8184514652681 8
 0.2256691729772 0.8184514652681 10
 0.2256691729772 0.8184514652681 12
 0.2256691729772 0.8184514652681 14
 0.2256691729772 0.8184514652681 16
 0.2256691729772 0.8184514652681 18
 0.2256691729772 0.8184514652681 20
 0.2256691729772 0.9079281621535 0
 0.2256691729772 0.9079281621535 2
 0.2256691729772 0.9079281621535 4
 0.2256691729772 0.9079281621535 6
 0.2256691729772 0.9079281621535 8
 0.2256691729772 0.9079281621535 10
 0.2256691729772 0.9079281621535 12
 0.2256691729772 0.9079281621535 14
 0.2256691729772 0.9079281621535 16
 0.2256691729772 0.9079281621535 18
 0.2256691729772 0.9079281621535 20
 0.2256691729772 1 0
 0.2256691729772 1 2
 0.2256691729772 1 4
 0.2256691729772 1 6
 0.2256691729772 1 8
 0.2256691729772 1 10
 0.2256691729772 1 12
 0.2256691729772 1 14
 0.2256691729772 1 16
 0.2256691729772 1 18
 0.2256691729772 1 20
 0.595544517922 0 0
 0.595544517922 0 2
 0.595544517922 0 4
 0.595544517922 0 6
 0.595544517922 0 8
 0.595544517922 0 10
 0.595544517922 0 12
 0.595544517922 0 14
 0.595544517922 0 16
 0.595544517922 0 18
 0.595544517922 0 20
 0.595544517922 0.02256691729772 0
 0.595544517922 0.02256691729772 2
 0.595544517922 0.02256691729772 4
 0.595544517922 0.02256691729772 6
 0.595544517922 0.02256691729772 8
 0.595544517922 0.02256691729772 10
 0.595544517922 0.02256691729772 12
 0.595544517922 0.02256691729772 14
 0.595544517922 0.02256691729772 16
 0.595544517922 0.02256691729772 18
 0.595544517922 0.02256691729772 20
 0.595544517922 0.0595544517922 0
 0.595544517922 0.0595544517922 2
 0.595544517922 0.0595544517922 4
 0.595544517922 0.0595544517922 6
 0.595544517922 0.0595544517922 8
 0.595544517922 0.0595544517922 10
 0.595544517922 0.0595544517922 12
 0.595544517922 0.0595544517922 14
 0.595544517922 0.0595544517922 16
 0.595544517922 0.0595544517922 18
 0.595544517922 0.0595544517922 20
 0.595544517922 0.1050611121762 0
 0.595544517922 0.1050611121762 2
 0.595544517922 0.1050611121762 4
 0.595544517922 0.1050611121762 6
 0.595544517922 0.1050611121762 8
 0.595544517922 0.1050611121762 10
 0.595544517922 0.1050611121762 12
 0.595544517922 0.1050611121762 14
 0.595544517922 0.1050611121762 16
 0.595544517922 0.1050611121762 18
 0.595544517922 0.1050611121762 20
 0.595544517922 0.1571651405231 0
 0.595544517922 0.1571651405231 2
 0.595544517922 0.1571651405231 4
 0.595544517922 0.1571651405231 6
 0.595544517922 0.1571651405231 8
 0.595544517922 0.1571651405231 10
 0.595544517922 0.1571651405231 12
 0.595544517922 0.1571651405231 14
 0.595544517922 0.1571651405231 16
 0.595544517922 0.1571651405231 18
 0.595544517922 0.1571651405231 20
 0.595544517922 0.2147980049924 0
 0.595544517922 0.2147980049924 2
 0.595544517922 0.2147980049924 4
 0.595544517922 0.2147980049924 6
 0.595544517922 0.2147980049924 8
 0.595544517922 0.2147980049924 10
 0.595544517922 0.2147980049924 12
 0.595544517922 0.2147980049924 14
 0.595544517922 0.2147980049924 16
 0.595544517922 0.2147980049924 18
 0.595544517922 0.2147980049924 20
 0.595544517922 0.2772579372621 0
 0.595544517922 0.2772579372621 2
 0.595544517922 0.2772579372621 4
 0.595544517922 0.2772579372621 6
 0.595544517922 0.2772579372621 8
 0.595544517922 0.2772579372621 10
 0.595544517922 0.2772579372621 12
 0.595544517922 0.2772579372621 14
 0.595544517922 0.2772579372621 16
 0.595544517922 0.2772579372621 18
 0.595544517922 0.2772579372621 20
 0.595544517922 0.3440404391444 0
 0.595544517922 0.3440404391444 2
 0.595544517922 0.3440404391444 4
 0.595544517922 0.3440404391444 6
 0.595544517922 0.3440404391444 8
 0.595544517922 0.3440404391444 10
 0.595544517922 0.3440404391444 12
 0.595544517922 0.3440404391444 14
 0.595544517922 0.3440404391444 16
 0.595544517922 0.3440404391444 18
 0.595544517922 0.3440404391444 20
 0.595544517922 0.414761292436 0
 0.595544517922 0.414761292436 2
 0.595544517922 0.414761292436 4
 0.595544517922 0.414761292436 6
 0.595544517922 0.414761292436 8
 0.595544517922 0.414761292436 10
 0.595544517922 0.414761292436 12
 0.595544517922 0.414761292436 14
 0.595544517922 0.414761292436 16
 0.595544517922 0.414761292436 18
 0.595544517922 0.414761292436 20
 0.595544517922 0.4891158657636 0
 0.595544517922 0.4891158657636 2
 0.595544517922 0.4891158657636 4
 0.595544517922 0.4891158657636 6
 0.595544517922 0.4891158657636 8
 0.595544517922 0.4891158657636 10
 0.595544517922 0.4891158657636 12
 0.595544517922 0.4891158657636 14
 0.595544517922 0.4891158657636 16
 0.595544517922 0.4891158657636 18
 0.595544517922 0.4891158657636 20
 0.595544517922 0.5668553336115 0
 0.595544517922 0.5668553336115 2
 0.595544517922 0.5668553336115 4
 0.595544517922 0.5668553336115 6
 0.595544517922 0.5668553336115 8
 0.595544517922 0.5668553336115 10
 0.595544517922 0.5668553336115 12
 0.595544517922 0.5668553336115 14
 0.595544517922 0.5668553336115 16
 0.595544517922 0.5668553336115 18
 0.595544517922 0.5668553336115 20
 0.595544517922 0.6477717387994 0
 0.595544517922 0.6477717387994 2
 0.595544517922 0.6477717387994 4
 0.595544517922 0.6477717387994 6
 0.595544517922 0.6477717387994 8
 0.595544517922 0.6477717387994 10
 0.595544517922 0.6477717387994 12
 0.595544517922 0.6477717387994 14
 0.595544517922 0.6477717387994 16
 0.595544517922 0.6477717387994 18
 0.595544517922 0.6477717387994 20
 0.595544517922 0.7316880830837 0
 0.595544517922 0.7316880830837 2
 0.595544517922 0.7316880830837 4
 0.595544517922 0.7316880830837 6
 0.595544517922 0.7316880830837 8
 0.595544517922 0.7316880830837 10
 0.595544517922 0.7316880830837 12
 0.595544517922 0.7316880830837 14
 0.595544517922 0.7316880830837 16
 0.595544517922 0.7316880830837 18
 0.595544517922 0.7316880830837 20
 0.595544517922 0.8184514652681 0
 0.595544517922 0.8184514652681 2
 0.595544517922 0.8184514652681 4
 0.595544517922 0.8184514652681 6
 0.595544517922 0.8184514652681 8
 0.595544517922 0.8184514652681 10
 0.595544517922 0.8184514652681 12
 0.595544517922 0.8184514652681 14
 0.595544517922 0.8184514652681 16
 0.595544517922 0.8184514652681 18
 0.595544517922 0.8184514652681 20
 0.595544517922 0.9079281621535 0
 0.595544517922 0.9079281621535 2
 0.595544517922 0.9079281621535 4
 0.595544517922 0.9079281621535 6
 0.595544517922 0.9079281621535 8
 0.595544517922 0.9079281621535 10
 0.595544517922 0.9079281621535 12
 0.595544517922 0.9079281621535 14
 0.595544517922 0.9079281621535 16
 0.595544517922 0.9079281621535 18
 0.595544517922 0.9079281621535 20
 0.595544517922 1 0
 0.595544517922 1 2
 0.595544517922 1 4
 0.595544517922 1 6
 0.595544517922 1 8
 0.595544517922 1 10
 0.595544517922 1 12
 0.595544517922 1 14
 0.595544517922 1 16
 0.595544517922 1 18
 0.595544517922 1 20
 1.050611121762 0 0
 1.050611121762 0 2
 1.050611121762 0 4
 1.050611121762 0 6
 1.050611121762 0 8
 1.050611121762 0 10
 1.050611121762 0 12
 1.050611121762 0 14
 1.050611121762 0 16
 1.050611121762 0 18
 1.050611121762 0 20
 1.050611121762 0.02256691729772 0
 1.050611121762 0.02256691729772 2
 1.050611121762 0.02256691729772 4
 1.050611121762 0.02256691729772 6
 1.050611121762 0.02256691729772 8
 1.050611121762 0.02256691729772 10
 1.050611121762 0.02256691729772 12
 1.050611121762 0.02256691729772 14
 1.050611121762 0.02256691729772 16
 1.050611121762 0.02256691729772 18
 1.050611121762 0.02256691729772 20
 1.050611121762 0.0595544517922 0
 1.050611121762 0.0595544517922 2
 1.050611121762 0.0595544517922 4
 1.050611121762 0.0595544517922 6
 1.050611121762 0.0595544517922 8
 1.050611121762 0.0595544517922 10
 1.050611121762 0.0595544517922 12
 1.050611121762 0.0595544517922 14
 1.050611121762 0.0595544517922 16
 1.050611121762 0.0595544517922 18
 1.050611121762 0.0595544517922 20
 1.050611121762 0.1050611121762 0
 1.050611121762 0.1050611121762 2
 1.050611121762 0.1050611121762 4
 1.050611121762 0.1050611121762 6
 1.050611121762 0.1050611121762 8
 1.050611121762 0.1050611121762 10
 1.050611121762 0.1050611121762 12
 1.050611121762 0.1050611121762 14
 1.050611121762 0.1050611121762 16
 1.050611121762 0.1050611121762 18
 1.050611121762 0.1050611121762 20
 1.050611121762 0.1571651405231 0
 1.050611121762 0.1571651405231 2
 1.050611121762 0.1571651405231 4
 1.050611121762 0.1571651405231 6
 1.050611121762 0.1571651405231 8
 1.050611121762 0.1571651405231 10
 1.050611121762 0.1571651405231 12
 1.050611121762 0.1571651405231 14
 1.050611121762 0.1571651405231 16
 1.050611121762 0.1571651405231 18
 1.050611121762 0.1571651405231 20
 1.050611121762 0.2147980049924 0
 1.050611121762 0.2147980049924 2
 1.050611121762 0.2147980049924 4
 1.050611121762 0.2147980049924 6
 1.050611121762 0.2147980049924 8
 1.050611121762 0.2147980049924 10
 1.050611121762 0.2147980049924 12
 1.050611121762 0.2147980049924 14
 1.050611121762 0.2147980049924 16
 1.050611121762 0.2147980049924 18
 1.050611121762 0.2147980049924 20
 1.050611121762 0.2772579372621 0
 1.050611121762 0.2772579372621 2
 1.050611121762 0.2772579372621 4
 1.050611121762 0.2772579372621 6
 1.050611121762 0.2772579372621 8
 1.050611121762 0.2772579372621 10
 1.050611121762 0.2772579372621 12
 1.050611121762 0.2772579372621 14
 1.050611121762 0.2772579372621 16
 1.050611121762 0.2772579372621 18
 1.050611121762 0.2772579372621 20
 1.050611121762 0.3440404391444 0
 1.050611121762 0.3440404391444 2
 1.050611121762 0.3440404391444 4
 1.050611121762 0.3440404391444 6
 1.050611121762 0.3440404391444 8
 1.050611121762 0.3440404391444 10
 1.050611121762 0.3440404391444 12
 1.050611121762 0.3440404391444 14
 1.050611121762 0.3440404391444 16
 1.050611121762 0.3440404391444 18
 1.050611121762 0.3440404391444 20
 1.050611121762 0.414761292436 0
 1.050611121762 0.414761292436 2
 1.050611121762 0.414761292436 4
 1.050611121762 0.414761292436 6
 1.050611121762 0.414761292436 8
 1.050611121762 0.414761292436 10
 1.050611121762 0.414761292436 12
 1.050611121762 0.414761292436 14
 1.050611121762 0.414761292436 16
 1.050611121762 0.414761292436 18
 1.050611121762 0.414761292436 20
 1.050611121762 0.4891158657636 0
 1.050611121762 0.4891158657636 2
 1.050611121762 0.4891158657636 4
 1.050611121762 0.4891158657636 6
 1.050611121762 0.4891158657636 8
 1.050611121762 0.4891158657636 10
 1.050611121762 0.4891158657636 12
 1.050611121762 0.4891158657636 14
 1.050611121762 0.4891158657636 16
 1.050611121762 0.4891158657636 18
 1.050611121762 0.4891158657636 20
 1.050611121762 0.5668553336115 0
 1.050611121762 0.5668553336115 2
 1.050611121762 0.5668553336115 4
 1.050611121762 0.5668553336115 6
 1.050611121762 0.5668553336115 8
 1.050611121762 0.5668553336115 10
 1.050611121762 0.5668553336115 12
 1.050611121762 0.5668553336115 14
 1.050611121762 0.5668553336115 16
 1.050611121762 0.5668553336115 18
 1.050611121762 0.5668553336115 20
 1.050611121762 0.6477717387994 0
 1.050611121762 0.6477717387994 2
 1.050611121762 0.6477717387994 4
 1.050611121762 0.6477717387994 6
 1.050611121762 0.6477717387994 8
 1.050611121762 0.6477717387994 10
 1.050611121762 0.6477717387994 12
 1.050611121762 0.6477717387994 14
 1.050611121762 0.6477717387994 16
 1.050611121762 0.6477717387994 18
 1.050611121762 0.6477717387994 20
 1.050611121762 0.7316880830837 0
 1.050611121762 0.7316880830837 2
 1.050611121762 0.7316880830837 4
 1.050611121762 0.7316880830837 6
 1.050611121762 0.7316880830837 8
 1.050611121762 0.7316880830837 10
 1.050611121762 0.7316880830837 12
 1.050611121762 0.7316880830837 14
 1.050611121762 0.7316880830837 16
 1.050611121762 0.7316880830837 18
 1.050611121762 0.7316880830837 20
 1.050611121762 0.8184514652681 0
 1.050611121762 0.8184514652681 2
 1.050611121762 0.8184514652681 4
 1.050611121762 0.8184514652681 6
 1.050611121762 0.8184514652681 8
 1.050611121762 0.8184514652681 10
 1.050611121762 0.8184514652681 12
 1.050611121762 0.8184514652681 14
 1.050611121762 0.8184514652681 16
 1.050611121762 0.8184514652681 18
 1.050611121762 0.8184514652681 20
 1.050611121762 0.9079281621535 0
 1.050611121762 0.9079281621535 2
 1.050611121762 0.9079281621535 4
 1.050611121762 0.9079281621535 6
 1.050611121762 0.9079281621535 8
 1.050611121762 0.9079281621535 10
 1.050611121762 0.9079281621535 12
 1.050611121762 0.9079281621535 14
 1.050611121762 0.9079281621535 16
 1.050611121762 0.9079281621535 18
 1.050611121762 0.9079281621535 20
 1.050611121762 1 0
 1.050611121762 1 2
 1.050611121762 1 4
 1.050611121762 1 6
 1.050611121762 1 8
 1.050611121762 1 10
 1.050611121762 1 12
 1.050611121762 1 14
 1.050611121762 1 16
 1.050611121762 1 18
 1.050611121762 1 20
 1.571651405231 0 0
 1.571651405231 0 2
 1.571651405231 0 4
 1.571651405231 0 6
 1.571651405231 0 8
 1.571651405231 0 10
 1.571651405231 0 12
 1.571651405231 0 14
 1.571651405231 0 16
 1.571651405231 0 18
 1.571651405231 0 20
 1.571651405231 0.02256691729772 0
 1.571651405231 0.02256691729772 2
 1.571651405231 0.02256691729772 4
 1.571651405231 0.02256691729772 6
 1.571651405231 0.02256691729772 8
 1.571651405231 0.02256691729772 10
 1.571651405231 0.02256691729772 12
 1.571651405231 0.02256691729772 14
 1.571651405231 0.02256691729772 16
 1.571651405231 0.02256691729772 18
 1.571651405231 0.02256691729772 20
 1.571651405231 0.0595544517922 0
 1.571651405231 0.0595544517922 2
 1.571651405231 0.0595544517922 4
 1.571651405231 0.0595544517922 6
 1.571651405231 0.0595544517922 8
 1.571651405231 0.0595544517922 10
 1.571651405231 0.0595544517922 12
 1.571651405231 0.0595544517922 14
 1.571651405231 0.0595544517922 16
 1.571651405231 0.0595544517922 18
 1.571651405231 0.0595544517922 20
 1.571651405231 0.1050611121762 0
 1.571651405231 0.1050611121762 2
 1.571651405231 0.1050611121762 4
 1.571651405231 0.1050611121762 6
 1.571651405231 0.1050611121762 8
 1.571651405231 0.1050611121762 10
 1.571651405231 0.1050611121762 12
 1.571651405231 0.1050611121762 14
 1.571651405231 0.1050611121762 16
 1.571651405231 0.1050611121762 18
 1.571651405231 0.1050611121762 20
 1.571651405231 0.1571651405231 0
 1.571651405231 0.1571651405231 2
 1.571651405231 0.1571651405231 4
 1.571651405231 0.1571651405231 6
 1.571651405231 0.1571651405231 8
 1.571651405231 0.1571651405231 10
 1.571651405231 0.1571651405231 12
 1.571651405231 0.1571651405231 14
 1.571651405231 0.1571651405231 16
 1.571651405231 0.1571651405231 18
 1.571651405231 0.1571651405231 20
 1.571651405231 0.2147980049924 0
 1.571651405231 0.2147980049924 2
 1.571651405231 0.2147980049924 4
 1.571651405231 0.2147980049924 6
 1.571651405231 0.2147980049924 8
 1.571651405231 0.2147980049924 10
 1.571651405231 0.2147980049924 12
 1.571651405231 0.2147980049924 14
 1.571651405231 0.2147980049924 16
 1.571651405231 0.2147980049924 18
 1.571651405231 0.2147980049924 20
 1.571651405231 0.2772579372621 0
 1.571651405231 0.2772579372621 2
 1.571651405231 0.2772579372621 4
 1.571651405231 0.2772579372621 6
 1.571651405231 0.2772579372621 8
 1.571651405231 0.2772579372621 10
 1.571651405231 0.2772579372621 12
 1.571651405231 0.2772579372621 14
 1.571651405231 0.2772579372621 16
 1.571651405231 0.2772579372621 18
 1.571651405231 0.2772579372621 20
 1.571651405231 0.3440404391444 0
 1.571651405231 0.3440404391444 2
 1.571651405231 0.3440404391444 4
 1.571651405231 0.3440404391444 6
 1.571651405231 0.3440404391444 8
 1.571651405231 0.3440404391444 10
 1.571651405231 0.3440404391444 12
 1.571651405231 0.3440404391444 14
 1.571651405231 0.3440404391444 16
 1.571651405231 0.3440404391444 18
 1.571651405231 0.3440404391444 20
 1.571651405231 0.414761292436 0
 1.571651405231 0.414761292436 2
 1.571651405231 0.414761292436 4
 1.571651405231 0.414761292436 6
 1.571651405231 0.414761292436 8
 1.571651405231 0.414761292436 10
 1.571651405231 0.414761292436 12
 1.571651405231 0.414761292436 14
 1.571651405231 0.414761292436 16
 1.571651405231 0.414761292436 18
 1.571651405231 0.414761292436 20
 1.571651405231 0.4891158657636 0
 1.571651405231 0.4891158657636 2
 1.571651405231 0.4891158657636 4
 1.571651405231 0.4891158657636 6
 1.571651405231 0.4891158657636 8
 1.571651405231 0.4891158657636 10
 1.571651405231 0.4891158657636 12
 1.571651405231 0.4891158657636 14
 1.571651405231 0.4891158657636 16
 1.571651405231 0.4891158657636 18
 1.571651405231 0.4891158657636 20
 1.571651405231 0.5668553336115 0
 1.571651405231 0.5668553336115 2
 1.571651405231 0.5668553336115 4
 1.571651405231 0.5668553336115 6
 1.571651405231 0.5668553336115 8
 1.571651405231 0.5668553336115 10
 1.571651405231 0.5668553336115 12
 1.571651405231 0.5668553336115 14
 1.571651405231 0.5668553336115 16
 1.571651405231 0.5668553336115 18
 1.571651405231 0.5668553336115 20
 1.571651405231 0.6477717387994 0
 1.571651405231 0.6477717387994 2
 1.571651405231 0.6477717387994 4
 1.571651405231 0.6477717387994 6
 1.571651405231 0.6477717387994 8
 1.571651405231 0.6477717387994 10
 1.571651405231 0.6477717387994 12
 1.571651405231 0.6477717387994 14
 1.571651405231 0.6477717387994 16
 1.571651405231 0.6477717387994 18
 1.571651405231 0.6477717387994 20
 1.571651405231 0.7316880830837 0
 1.571651405231 0.7316880830837 2
 1.571651405231 0.7316880830837 4
 1.571651405231 0.7316880830837 6
 1.571651405231 0.7316880830837 8
 1.571651405231 0.7316880830837 10
 1.571651405231 0.7316880830837 12
 1.571651405231 0.7316880830837 14
 1.571651405231 0.7316880830837 16
 1.571651405231 0.7316880830837 18
 1.571651405231 0.7316880830837 20
 1.571651405231 0.8184514652681 0
 1.571651405231 0.8184514652681 2
 1.571651405231 0.8184514652681 4
 1.571651405231 0.8184514652681 6
 1.571651405231 0.8184514652681 8
 1.571651405231 0.8184514652681 10
 1.571651405231 0.8184514652681 12
 1.571651405231 0.8184514652681 14
 1.571651405231 0.8184514652681 16
 1.571651405231 0.8184514652681 18
 1.571651405231 0.8184514652681 20
 1.571651405231 0.9079281621535 0
 1.571651405231 0.9079281621535 2
 1.571651405231 0.9079281621535 4
 1.571651405231 0.9079281621535 6
 1.571651405231 0.9079281621535 8
 1.571651405231 0.9079281621535 10
 1.571651405231 0.9079281621535 12
 1.571651405231 0.9079281621535 14
 1.571651405231 0.9079281621535 16
 1.571651405231 0.9079281621535 18
 1.571651405231 0.9079281621535 20
 1.571651405231 1 0
 1.571651405231 1 2
 1.571651405231 1 4
 1.571651405231 1 6
 1.571651405231 1 8
 1.571651405231 1 10
 1.571651405231 1 12
 1.571651405231 1 14
 1.571651405231 1 16
 1.571651405231 1 18
 1.571651405231 1 20
 2.147980049924 0 0
 2.147980049924 0 2
 2.147980049924 0 4
 2.147980049924 0 6
 2.147980049924 0 8
 2.147980049924 0 10
 2.147980049924 0 12
 2.147980049924 0 14
 2.147980049924 0 16
 2.147980049924 0 18
 2.147980049924 0 20
 2.147980049924 0.02256691729772 0
 2.147980049924 0.02256691729772 2
 2.147980049924 0.02256691729772 4
 2.147980049924 0.02256691729772 6
 2.147980049924 0.02256691729772 8
 2.147980049924 0.02256691729772 10
 2.147980049924 0.02256691729772 12
 2.147980049924 0.02256691729772 14
 2.147980049924 0.02256691729772 16
 2.147980049924 0.02256691729772 18
 2.147980049924 0.02256691729772 20
 2.147980049924 0.0595544517922 0
 2.147980049924 0.0595544517922 2
 2.147980049924 0.0595544517922 4
 2.147980049924 0.0595544517922 6
 2.147980049924 0.0595544517922 8
 2.147980049924 0.0595544517922 10
 2.147980049924 0.0595544517922 12
 2.147980049924 0.0595544517922 14
 2.147980049924 0.0595544517922 16
 2.147980049924 0.0595544517922 18
 2.147980049924 0.0595544517922 20
 2.147980049924 0.1050611121762 0
 2.147980049924 0.1050611121762 2
 2.147980049924 0.1050611121762 4
 2.147980049924 0.1050611121762 6
 2.147980049924 0.1050611121762 8
 2.147980049924 0.1050611121762 10
 2.147980049924 0.1050611121762 12
 2.147980049924 0.1050611121762 14
 2.147980049924 0.1050611121762 16
 2.147980049924 0.1050611121762 18
 2.147980049924 0.1050611121762 20
 2.147980049924 0.1571651405231 0
 2.147980049924 0.1571651405231 2
 2.147980049924 0.1571651405231 4
 2.147980049924 0.1571651405231 6
 2.147980049924 0.1571651405231 8
 2.147980049924 0.1571651405231 10
 2.147980049924 0.1571651405231 12
 2.147980049924 0.1571651405231 14
 2.147980049924 0.1571651405231 16
 2.147980049924 0.1571651405231 18
 2.147980049924 0.1571651405231 20
 2.147980049924 0.2147980049924 0
 2.147980049924 0.2147980049924 2
 2.147980049924 0.2147980049924 4
 2.147980049924 0.2147980049924 6
 2.147980049924 0.2147980049924 8
 2.147980049924 0.2147980049924 10
 2.147980049924 0.2147980049924 12
 2.147980049924 0.2147980049924 14
 2.147980049924 0.2147980049924 16
 2.147980049924 0.2147980049924 18
 2.147980049924 0.2147980049924 20
 2.147980049924 0.2772579372621 0
 2.147980049924 0.2772579372621 2
 2.147980049924 0.2772579372621 4
 2.147980049924 0.2772579372621 6
 2.147980049924 0.2772579372621 8
 2.147980049924 0.2772579372621 10
 2.147980049924 0.2772579372621 12
 2.147980049924 0.2772579372621 14
 2.147980049924 0.2772579372621 16
 2.147980049924 0.2772579372621 18
 2.147980049924 0.2772579372621 20
 2.147980049924 0.3440404391444 0
 2.147980049924 0.3440404391444 2
 2.147980049924 0.3440404391444 4
 2.147980049924 0.3440404391444 6
 2.147980049924 0.3440404391444 8
 2.147980049924 0.3440404391444 10
 2.147980049924 0.3440404391444 12
 2.147980049924 0.3440404391444 14
 2.147980049924 0.3440404391444 16
 2.147980049924 0.3440404391444 18
 2.147980049924 0.3440404391444 20
 2.147980049924 0.414761292436 0
 2.147980049924 0.414761292436 2
 2.147980049924 0.414761292436 4
 2.147980049924 0.414761292436 6
 2.147980049924 0.414761292436 8
 2.147980049924 0.414761292436 10
 2.147980049924 0.414761292436 12