VARIABLES = "x" "y" "wd"
ZONE T="InnerCells" SOLUTIONTIME=0 DATAPACKING=POINT N=28056 E=55300 ZONETYPE=FETRIANGLE
 -3.8 1 0.0015611149183
 -3.8 1.00156111491831 0.0015611149183
 -3.8 1.00883099955961 0.0088309995596
 -3.8 1.02433537319477 0.024335373195
 -3.8 1.04995567738606 0.049955677386
 -3.8 1.087268976951 0.087268976951
 -3.8 1.1376616592698 0.13766165927
 -3.8 1.20238577025078 0.20238577025
 -3.8 1.28259198590759 0.28259198591
 -3.8 1.37935092515038 0.37935092515
 -3.8 1.49366788311409 0.49366788311
 -3.8 1.62649352507966 0.62649352508
 -3.8 1.77873194223255 0.77873194223
 -3.8 1.95124690054371 0.95124690054
 -3.8 2.14486680447989 1.1448668045
 -3.8 2.36038871803314 1.360388718
 -3.8 2.59858167635385 1.5985816764
 -3.8 2.8601894518599 1.8601894519
 -3.8 3.1398105481401 1.8601894519
 -3.8 3.40141832364615 1.5985816764
 -3.8 3.63961128196686 1.360388718
 -3.8 3.85513319552011 1.1448668045
 -3.8 4.04875309945629 0.95124690054
 -3.8 4.22126805776745 0.77873194223
 -3.8 4.37350647492034 0.62649352508
 -3.8 4.50633211688591 0.49366788311
 -3.8 4.62064907484962 0.37935092515
 -3.8 4.71740801409241 0.28259198591
 -3.8 4.79761422974922 0.20238577025
 -3.8 4.8623383407302 0.13766165927
 -3.8 4.912731023049 0.087268976951
 -3.8 4.95004432261394 0.049955677386
 -3.8 4.97566462680523 0.024335373195
 -3.8 4.99116900044039 0.0088309995596
 -3.8 4.99843888508169 0.0015611149183
 -3.8 5 0.0015611149183
 -3.59447107749478 1 0.0015611149183
 -3.59447107749478 1.00156111491831 0.0015611149183
 -3.59447107749478 1.00883099955961 0.0088309995596
 -3.59447107749478 1.02433537319477 0.024335373195
 -3.59447107749478 1.04995567738606 0.049955677386
 -3.59447107749478 1.087268976951 0.087268976951
 -3.59447107749478 1.1376616592698 0.13766165927
 -3.59447107749478 1.20238577025078 0.20238577025
 -3.59447107749478 1.28259198590759 0.28259198591
 -3.59447107749478 1.37935092515038 0.37935092515
 -3.59447107749478 1.49366788311409 0.49366788311
 -3.59447107749478 1.62649352507966 0.62649352508
 -3.59447107749478 1.77873194223255 0.77873194223
 -3.59447107749478 1.95124690054371 0.95124690054
 -3.59447107749478 2.14486680447989 1.1448668045
 -3.59447107749478 2.36038871803314 1.360388718
 -3.59447107749478 2.59858167635385 1.5985816764
 -3.59447107749478 2.8601894518599 1.8601894519
 -3.59447107749478 3.1398105481401 1.8601894519
 -3.59447107749478 3.40141832364615 1.5985816764
 -3.59447107749478 3.63961128196686 1.360388718
 -3.59447107749478 3.85513319552011 1.1448668045
 -3.59447107749478 4.04875309945629 0.95124690054
 -3.59447107749478 4.22126805776745 0.77873194223
 -3.59447107749478 4.37350647492034 0.62649352508
 -3.59447107749478 4.50633211688591 0.49366788311
 -3.59447107749478 4.62064907484962 0.37935092515
 -3.59447107749478 4.71740801409241 0.28259198591
 -3.59447107749478 4.79761422974922 0.20238577025
 -3.59447107749478 4.8623383407302 0.13766165927
 -3.59447107749478 4.912731023049 0.087268976951
 -3.59447107749478 4.95004432261394 0.049955677386
 -3.59447107749478 4.97566462680523 0.024335373195
 -3.59447107749478 4.99116900044039 0.0088309995596
 -3.59447107749478 4.99843888508169 0.0015611149183
 -3.59447107749478 5 0.0015611149183
 -3.39234002954325 1 0.0015611149183
 -3.39234002954325 1.00156111491831 0.0015611149183
 -3.39234002954325 1.00883099955961 0.0088309995596
 -3.39234002954325 1.02433537319477 0.024335373195
 -3.39234002954325 1.04995567738606 0.049955677386
 -3.39234002954325 1.087268976951 0.087268976951
 -3.39234002954325 1.1376616592698 0.13766165927
 -3.39234002954325 1.20238577025078 0.20238577025
 -3.39234002954325 1.28259198590759 0.28259198591
 -3.39234002954325 1.37935092515038 0.37935092515
 -3.39234002954325 1.49366788311409 0.49366788311
 -3.39234002954325 1.62649352507966 0.62649352508
 -3.39234002954325 1.77873194223255 0.77873194223
 -3.39234002954325 1.95124690054371 0.95124690054
 -3.39234002954325 2.14486680447989 1.1448668045
 -3.39234002954325 2.36038871803314 1.360388718
 -3.39234002954325 2.59858167635385 1.5985816764
 -3.39234002954325 2.8601894518599 1.8601894519
 -3.39234002954325 3.1398105481401 1.8601894519
 -3.39234002954325 3.40141832364615 1.5985816764
 -3.39234002954325 3.63961128196686 1.360388718
 -3.39234002954325 3.85513319552011 1.1448668045
 -3.39234002954325 4.04875309945629 0.95124690054
 -3.39234002954325 4.22126805776745 0.77873194223
 -3.39234002954325 4.37350647492034 0.62649352508
 -3.39234002954325 4.50633211688591 0.49366788311
 -3.39234002954325 4.62064907484962 0.37935092515
 -3.39234002954325 4.71740801409241 0.28259198591
 -3.39234002954325 4.79761422974922 0.20238577025
 -3.39234002954325 4.8623383407302 0.13766165927
 -3.39234002954325 4.912731023049 0.087268976951
 -3.39234002954325 4.95004432261394 0.049955677386
 -3.39234002954325 4.97566462680523 0.024335373195
 -3.39234002954325 4.99116900044039 0.0088309995596
 -3.39234002954325 4.99843888508169 0.0015611149183
 -3.39234002954325 5 0.0015611149183
 -3.19369478386606 1 0.0015611149183
 -3.19369478386606 1.00156111491831 0.0015611149183
 -3.19369478386606 1.00883099955961 0.0088309995596
 -3.19369478386606 1.02433537319477 0.024335373195
 -3.19369478386606 1.04995567738606 0.049955677386
 -3.19369478386606 1.087268976951 0.087268976951
 -3.19369478386606 1.1376616592698 0.13766165927
 -3.19369478386606 1.20238577025078 0.20238577025
 -3.19369478386606 1.28259198590759 0.28259198591
 -3.19369478386606 1.37935092515038 0.37935092515
 -3.19369478386606 1.49366788311409 0.49366788311
 -3.19369478386606 1.62649352507966 0.62649352508
 -3.19369478386606 1.77873194223255 0.77873194223
 -3.19369478386606 1.95124690054371 0.95124690054
 -3.19369478386606 2.14486680447989 1.1448668045
 -3.19369478386606 2.36038871803314 1.360388718
 -3.19369478386606 2.59858167635385 1.5985816764
 -3.19369478386606 2.8601894518599 1.8601894519
 -3.19369478386606 3.1398105481401 1.8601894519
 -3.19369478386606 3.40141832364615 1.5985816764
 -3.19369478386606 3.63961128196686 1.360388718
 -3.19369478386606 3.85513319552011 1.1448668045
 -3.19369478386606 4.04875309945629 0.95124690054
 -3.19369478386606 4.22126805776745 0.77873194223
 -3.19369478386606 4.37350647492034 0.62649352508
 -3.19369478386606 4.50633211688591 0.49366788311
 -3.19369478386606 4.62064907484962 0.37935092515
 -3.19369478386606 4.71740801409241 0.28259198591
 -3.19369478386606 4.79761422974922 0.20238577025
 -3.19369478386606 4.8623383407302 0.13766165927
 -3.19369478386606 4.912731023049 0.087268976951
 -3.19369478386606 4.95004432261394 0.049955677386
 -3.19369478386606 4.97566462680523 0.024335373195
 -3.19369478386606 4.99116900044039 0.0088309995596
 -3.19369478386606 4.99843888508169 0.0015611149183
 -3.19369478386606 5 0.0015611149183
 -2.99862961178859 1 0.0015611149183
 -2.99862961178859 1.00156111491831 0.0015611149183
 -2.99862961178859 1.00883099955961 0.0088309995596
 -2.99862961178859 1.02433537319477 0.024335373195
 -2.99862961178859 1.04995567738606 0.049955677386
 -2.99862961178859 1.087268976951 0.087268976951
 -2.99862961178859 1.1376616592698 0.13766165927
 -2.99862961178859 1.20238577025078 0.20238577025
 -2.99862961178859 1.28259198590759 0.28259198591
 -2.99862961178859 1.37935092515038 0.37935092515
 -2.99862961178859 1.49366788311409 0.49366788311
 -2.99862961178859 1.62649352507966 0.62649352508
 -2.99862961178859 1.77873194223255 0.77873194223
 -2.99862961178859 1.95124690054371 0.95124690054
 -2.99862961178859 2.14486680447989 1.1448668045
 -2.99862961178859 2.36038871803314 1.360388718
 -2.99862961178859 2.59858167635385 1.5985816764
 -2.99862961178859 2.8601894518599 1.8601894519
 -2.99862961178859 3.1398105481401 1.8601894519
 -2.99862961178859 3.40141832364615 1.5985816764
 -2.99862961178859 3.63961128196686 1.360388718
 -2.99862961178859 3.85513319552011 1.1448668045
 -2.99862961178859 4.04875309945629 0.95124690054
 -2.99862961178859 4.22126805776745 0.77873194223
 -2.99862961178859 4.37350647492034 0.62649352508
 -2.99862961178859 4.50633211688591 0.49366788311
 -2.99862961178859 4.62064907484962 0.37935092515
 -2.99862961178859 4.71740801409241 0.28259198591
 -2.99862961178859 4.79761422974922 0.20238577025
 -2.99862961178859 4.8623383407302 0.13766165927
 -2.99862961178859 4.912731023049 0.087268976951
 -2.99862961178859 4.95004432261394 0.049955677386
 -2.99862961178859 4.97566462680523 0.024335373195
 -2.99862961178859 4.99116900044039 0.0088309995596
 -2.99862961178859 4.99843888508169 0.0015611149183
 -2.99862961178859 5 0.0015611149183
 -2.80724590740977 1 0.0015611149183
 -2.80724590740977 1.00156111491831 0.0015611149183
 -2.80724590740977 1.00883099955961 0.0088309995596
 -2.80724590740977 1.02433537319477 0.024335373195
 -2.80724590740977 1.04995567738606 0.049955677386
 -2.80724590740977 1.087268976951 0.087268976951
 -2.80724590740977 1.1376616592698 0.13766165927
 -2.80724590740977 1.20238577025078 0.20238577025
 -2.80724590740977 1.28259198590759 0.28259198591
 -2.80724590740977 1.37935092515038 0.37935092515
 -2.80724590740977 1.49366788311409 0.49366788311
 -2.80724590740977 1.62649352507966 0.62649352508
 -2.80724590740977 1.77873194223255 0.77873194223
 -2.80724590740977 1.95124690054371 0.95124690054
 -2.80724590740977 2.14486680447989 1.1448668045
 -2.80724590740977 2.36038871803314 1.360388718
 -2.80724590740977 2.59858167635385 1.5985816764
 -2.80724590740977 2.8601894518599 1.8601894519
 -2.80724590740977 3.1398105481401 1.8601894519
 -2.80724590740977 3.40141832364615 1.5985816764
 -2.80724590740977 3.63961128196686 1.360388718
 -2.80724590740977 3.85513319552011 1.1448668045
 -2.80724590740977 4.04875309945629 0.95124690054
 -2.80724590740977 4.22126805776745 0.77873194223
 -2.80724590740977 4.37350647492034 0.62649352508
 -2.80724590740977 4.50633211688591 0.49366788311
 -2.80724590740977 4.62064907484962 0.37935092515
 -2.80724590740977 4.71740801409241 0.28259198591
 -2.80724590740977 4.79761422974922 0.20238577025
 -2.80724590740977 4.8623383407302 0.13766165927
 -2.80724590740977 4.912731023049 0.087268976951
 -2.80724590740977 4.95004432261394 0.049955677386
 -2.80724590740977 4.97566462680523 0.024335373195
 -2.80724590740977 4.99116900044039 0.0088309995596
 -2.80724590740977 4.99843888508169 0.0015611149183
 -2.80724590740977 5 0.0015611149183
 -2.61965310592213 1 0.0015611149183
 -2.61965310592213 1.00156111491831 0.0015611149183
 -2.61965310592213 1.00883099955961 0.0088309995596
 -2.61965310592213 1.02433537319477 0.024335373195
 -2.61965310592213 1.04995567738606 0.049955677386
 -2.61965310592213 1.087268976951 0.087268976951
 -2.61965310592213 1.1376616592698 0.13766165927
 -2.61965310592213 1.20238577025078 0.20238577025
 -2.61965310592213 1.28259198590759 0.28259198591
 -2.61965310592213 1.37935092515038 0.37935092515
 -2.61965310592213 1.49366788311409 0.49366788311
 -2.61965310592213 1.62649352507966 0.62649352508
 -2.61965310592213 1.77873194223255 0.77873194223
 -2.61965310592213 1.95124690054371 0.95124690054
 -2.61965310592213 2.14486680447989 1.1448668045
 -2.61965310592213 2.36038871803314 1.360388718
 -2.61965310592213 2.59858167635385 1.5985816764
 -2.61965310592213 2.8601894518599 1.8601894519
 -2.61965310592213 3.1398105481401 1.8601894519
 -2.61965310592213 3.40141832364615 1.5985816764
 -2.61965310592213 3.63961128196686 1.360388718
 -2.61965310592213 3.85513319552011 1.1448668045
 -2.61965310592213 4.04875309945629 0.95124690054
 -2.61965310592213 4.22126805776745 0.77873194223
 -2.61965310592213 4.37350647492034 0.62649352508
 -2.61965310592213 4.50633211688591 0.49366788311
 -2.61965310592213 4.62064907484962 0.37935092515
 -2.61965310592213 4.71740801409241 0.28259198591
 -2.61965310592213 4.79761422974922 0.20238577025
 -2.61965310592213 4.8623383407302 0.13766165927
 -2.61965310592213 4.912731023049 0.087268976951
 -2.61965310592213 4.95004432261394 0.049955677386
 -2.61965310592213 4.97566462680523 0.024335373195
 -2.61965310592213 4.99116900044039 0.0088309995596
 -2.61965310592213 4.99843888508169 0.0015611149183
 -2.61965310592213 5 0.0015611149183
 -2.43596977451249 1 0.0015611149183
 -2.43596977451249 1.00156111491831 0.0015611149183
 -2.43596977451249 1.00883099955961 0.0088309995596
 -2.43596977451249 1.02433537319477 0.024335373195
 -2.43596977451249 1.04995567738606 0.049955677386
 -2.43596977451249 1.087268976951 0.087268976951
 -2.43596977451249 1.1376616592698 0.13766165927
 -2.43596977451249 1.20238577025078 0.20238577025
 -2.43596977451249 1.28259198590759 0.28259198591
 -2.43596977451249 1.37935092515038 0.37935092515
 -2.43596977451249 1.49366788311409 0.49366788311
 -2.43596977451249 1.62649352507966 0.62649352508
 -2.43596977451249 1.77873194223255 0.77873194223
 -2.43596977451249 1.95124690054371 0.95124690054
 -2.43596977451249 2.14486680447989 1.1448668045
 -2.43596977451249 2.36038871803314 1.360388718
 -2.43596977451249 2.59858167635385 1.5985816764
 -2.43596977451249 2.8601894518599 1.8601894519
 -2.43596977451249 3.1398105481401 1.8601894519
 -2.43596977451249 3.40141832364615 1.5985816764
 -2.43596977451249 3.63961128196686 1.360388718
 -2.43596977451249 3.85513319552011 1.1448668045
 -2.43596977451249 4.04875309945629 0.95124690054
 -2.43596977451249 4.22126805776745 0.77873194223
 -2.43596977451249 4.37350647492034 0.62649352508
 -2.43596977451249 4.50633211688591 0.49366788311
 -2.43596977451249 4.62064907484962 0.37935092515
 -2.43596977451249 4.71740801409241 0.28259198591
 -2.43596977451249 4.79761422974922 0.20238577025
 -2.43596977451249 4.8623383407302 0.13766165927
 -2.43596977451249 4.912731023049 0.087268976951
 -2.43596977451249 4.95004432261394 0.049955677386
 -2.43596977451249 4.97566462680523 0.024335373195
 -2.43596977451249 4.99116900044039 0.0088309995596
 -2.43596977451249 4.99843888508169 0.0015611149183
 -2.43596977451249 5 0.0015611149183
 -2.25632491959511 1 0.0015611149183
 -2.25632491959511 1.00156111491831 0.0015611149183
 -2.25632491959511 1.00883099955961 0.0088309995596
 -2.25632491959511 1.02433537319477 0.024335373195
 -2.25632491959511 1.04995567738606 0.049955677386
 -2.25632491959511 1.087268976951 0.087268976951
 -2.25632491959511 1.1376616592698 0.13766165927
 -2.25632491959511 1.20238577025078 0.20238577025
 -2.25632491959511 1.28259198590759 0.28259198591
 -2.25632491959511 1.37935092515038 0.37935092515
 -2.25632491959511 1.49366788311409 0.49366788311
 -2.25632491959511 1.62649352507966 0.62649352508
 -2.25632491959511 1.77873194223255 0.77873194223
 -2.25632491959511 1.95124690054371 0.95124690054
 -2.25632491959511 2.14486680447989 1.1448668045
 -2.25632491959511 2.36038871803314 1.360388718
 -2.25632491959511 2.59858167635385 1.5985816764
 -2.25632491959511 2.8601894518599 1.8601894519
 -2.25632491959511 3.1398105481401 1.8601894519
 -2.25632491959511 3.40141832364615 1.5985816764
 -2.25632491959511 3.63961128196686 1.360388718
 -2.25632491959511 3.85513319552011 1.1448668045
 -2.25632491959511 4.04875309945629 0.95124690054
 -2.25632491959511 4.22126805776745 0.77873194223
 -2.25632491959511 4.37350647492034 0.62649352508
 -2.25632491959511 4.50633211688591 0.49366788311
 -2.25632491959511 4.62064907484962 0.37935092515
 -2.25632491959511 4.71740801409241 0.28259198591
 -2.25632491959511 4.79761422974922 0.20238577025
 -2.25632491959511 4.8623383407302 0.13766165927
 -2.25632491959511 4.912731023049 0.087268976951
 -2.25632491959511 4.95004432261394 0.049955677386
 -2.25632491959511 4.97566462680523 0.024335373195
 -2.25632491959511 4.99116900044039 0.0088309995596
 -2.25632491959511 4.99843888508169 0.0015611149183
 -2.25632491959511 5 0.0015611149183
 -2.08085956842891 1 0.0015611149183
 -2.08085956842891 1.00156111491831 0.0015611149183
 -2.08085956842891 1.00883099955961 0.0088309995596
 -2.08085956842891 1.02433537319477 0.024335373195
 -2.08085956842891 1.04995567738606 0.049955677386
 -2.08085956842891 1.087268976951 0.087268976951
 -2.08085956842891 1.1376616592698 0.13766165927
 -2.08085956842891 1.20238577025078 0.20238577025
 -2.08085956842891 1.28259198590759 0.28259198591
 -2.08085956842891 1.37935092515038 0.37935092515
 -2.08085956842891 1.49366788311409 0.49366788311
 -2.08085956842891 1.62649352507966 0.62649352508
 -2.08085956842891 1.77873194223255 0.77873194223
 -2.08085956842891 1.95124690054371 0.95124690054
 -2.08085956842891 2.14486680447989 1.1448668045
 -2.08085956842891 2.36038871803314 1.360388718
 -2.08085956842891 2.59858167635385 1.5985816764
 -2.08085956842891 2.8601894518599 1.8601894519
 -2.08085956842891 3.1398105481401 1.8601894519
 -2.08085956842891 3.40141832364615 1.5985816764
 -2.08085956842891 3.63961128196686 1.360388718
 -2.08085956842891 3.85513319552011 1.1448668045
 -2.08085956842891 4.04875309945629 0.95124690054
 -2.08085956842891 4.22126805776745 0.77873194223
 -2.08085956842891 4.37350647492034 0.62649352508
 -2.08085956842891 4.50633211688591 0.49366788311
 -2.08085956842891 4.62064907484962 0.37935092515
 -2.08085956842891 4.71740801409241 0.28259198591
 -2.08085956842891 4.79761422974922 0.20238577025
 -2.08085956842891 4.8623383407302 0.13766165927
 -2.08085956842891 4.912731023049 0.087268976951
 -2.08085956842891 4.95004432261394 0.049955677386
 -2.08085956842891 4.97566462680523 0.024335373195
 -2.08085956842891 4.99116900044039 0.0088309995596
 -2.08085956842891 4.99843888508169 0.0015611149183
 -2.08085956842891 5 0.0015611149183
 -1.90972870332515 1 0.0015611149183
 -1.90972870332515 1.00156111491831 0.0015611149183
 -1.90972870332515 1.00883099955961 0.0088309995596
 -1.90972870332515 1.02433537319477 0.024335373195
 -1.90972870332515 1.04995567738606 0.049955677386
 -1.90972870332515 1.087268976951 0.087268976951
 -1.90972870332515 1.1376616592698 0.13766165927
 -1.90972870332515 1.20238577025078 0.20238577025
 -1.90972870332515 1.28259198590759 0.28259198591
 -1.90972870332515 1.37935092515038 0.37935092515
 -1.90972870332515 1.49366788311409 0.49366788311
 -1.90972870332515 1.62649352507966 0.62649352508
 -1.90972870332515 1.77873194223255 0.77873194223
 -1.90972870332515 1.95124690054371 0.95124690054
 -1.90972870332515 2.14486680447989 1.1448668045
 -1.90972870332515 2.36038871803314 1.360388718
 -1.90972870332515 2.59858167635385 1.5985816764
 -1.90972870332515 2.8601894518599 1.8601894519
 -1.90972870332515 3.1398105481401 1.8601894519
 -1.90972870332515 3.40141832364615 1.5985816764
 -1.90972870332515 3.63961128196686 1.360388718
 -1.90972870332515 3.85513319552011 1.1448668045
 -1.90972870332515 4.04875309945629 0.95124690054
 -1.90972870332515 4.22126805776745 0.77873194223
 -1.90972870332515 4.37350647492034 0.62649352508
 -1.90972870332515 4.50633211688591 0.49366788311
 -1.90972870332515 4.62064907484962 0.37935092515
 -1.90972870332515 4.71740801409241 0.28259198591
 -1.90972870332515 4.79761422974922 0.20238577025
 -1.90972870332515 4.8623383407302 0.13766165927
 -1.90972870332515 4.912731023049 0.087268976951
 -1.90972870332515 4.95004432261394 0.049955677386
 -1.90972870332515 4.97566462680523 0.024335373195
 -1.90972870332515 4.99116900044039 0.0088309995596
 -1.90972870332515 4.99843888508169 0.0015611149183
 -1.90972870332515 5 0.0015611149183
 -1.74310365560648 1 0.0015611149183
 -1.74310365560648 1.00156111491831 0.0015611149183
 -1.74310365560648 1.00883099955961 0.0088309995596
 -1.74310365560648 1.02433537319477 0.024335373195
 -1.74310365560648 1.04995567738606 0.049955677386
 -1.74310365560648 1.087268976951 0.087268976951
 -1.74310365560648 1.1376616592698 0.13766165927
 -1.74310365560648 1.20238577025078 0.20238577025
 -1.74310365560648 1.28259198590759 0.28259198591
 -1.74310365560648 1.37935092515038 0.37935092515
 -1.74310365560648 1.49366788311409 0.49366788311
 -1.74310365560648 1.62649352507966 0.62649352508
 -1.74310365560648 1.77873194223255 0.77873194223
 -1.74310365560648 1.95124690054371 0.95124690054
 -1.74310365560648 2.14486680447989 1.1448668045
 -1.74310365560648 2.36038871803314 1.360388718
 -1.74310365560648 2.59858167635385 1.5985816764
 -1.74310365560648 2.8601894518599 1.8601894519
 -1.74310365560648 3.1398105481401 1.8601894519
 -1.74310365560648 3.40141832364615 1.5985816764
 -1.74310365560648 3.63961128196686 1.360388718
 -1.74310365560648 3.85513319552011 1.1448668045
 -1.74310365560648 4.04875309945629 0.95124690054
 -1.74310365560648 4.22126805776745 0.77873194223
 -1.74310365560648 4.37350647492034 0.62649352508
 -1.74310365560648 4.50633211688591 0.49366788311
 -1.74310365560648 4.62064907484962 0.37935092515
 -1.74310365560648 4.71740801409241 0.28259198591
 -1.74310365560648 4.79761422974922 0.20238577025
 -1.74310365560648 4.8623383407302 0.13766165927
 -1.74310365560648 4.912731023049 0.087268976951
 -1.74310365560648 4.95004432261394 0.049955677386
 -1.74310365560648 4.97566462680523 0.024335373195
 -1.74310365560648 4.99116900044039 0.0088309995596
 -1.74310365560648 4.99843888508169 0.0015611149183
 -1.74310365560648 5 0.0015611149183
 -1.58117510897424 1 0.0015611149183
 -1.58117510897424 1.00156111491831 0.0015611149183
 -1.58117510897424 1.00883099955961 0.0088309995596
 -1.58117510897424 1.02433537319477 0.024335373195
 -1.58117510897424 1.04995567738606 0.049955677386
 -1.58117510897424 1.087268976951 0.087268976951
 -1.58117510897424 1.1376616592698 0.13766165927
 -1.58117510897424 1.20238577025078 0.20238577025
 -1.58117510897424 1.28259198590759 0.28259198591
 -1.58117510897424 1.37935092515038 0.37935092515
 -1.58117510897424 1.49366788311409 0.49366788311
 -1.58117510897424 1.62649352507966 0.62649352508
 -1.58117510897424 1.77873194223255 0.77873194223
 -1.58117510897424 1.95124690054371 0.95124690054
 -1.58117510897424 2.14486680447989 1.1448668045
 -1.58117510897424 2.36038871803314 1.360388718
 -1.58117510897424 2.59858167635385 1.5985816764
 -1.58117510897424 2.8601894518599 1.8601894519
 -1.58117510897424 3.1398105481401 1.8601894519
 -1.58117510897424 3.40141832364615 1.5985816764
 -1.58117510897424 3.63961128196686 1.360388718
 -1.58117510897424 3.85513319552011 1.1448668045
 -1.58117510897424 4.04875309945629 0.95124690054
 -1.58117510897424 4.22126805776745 0.77873194223
 -1.58117510897424 4.37350647492034 0.62649352508
 -1.58117510897424 4.50633211688591 0.49366788311
 -1.58117510897424 4.62064907484962 0.37935092515
 -1.58117510897424 4.71740801409241 0.28259198591
 -1.58117510897424 4.79761422974922 0.20238577025
 -1.58117510897424 4.8623383407302 0.13766165927
 -1.58117510897424 4.912731023049 0.087268976951
 -1.58117510897424 4.95004432261394 0.049955677386
 -1.58117510897424 4.97566462680523 0.024335373195
 -1.58117510897424 4.99116900044039 0.0088309995596
 -1.58117510897424 4.99843888508169 0.0015611149183
 -1.58117510897424 5 0.0015611149183
 -1.42415692583757 1 0.0015611149183
 -1.42415692583757 1.00156111491831 0.0015611149183
 -1.42415692583757 1.00883099955961 0.0088309995596
 -1.42415692583757 1.02433537319477 0.024335373195
 -1.42415692583757 1.04995567738606 0.049955677386
 -1.42415692583757 1.087268976951 0.087268976951
 -1.42415692583757 1.1376616592698 0.13766165927
 -1.42415692583757 1.20238577025078 0.20238577025
 -1.42415692583757 1.28259198590759 0.28259198591
 -1.42415692583757 1.37935092515038 0.37935092515
 -1.42415692583757 1.49366788311409 0.49366788311
 -1.42415692583757 1.62649352507966 0.62649352508
 -1.42415692583757 1.77873194223255 0.77873194223
 -1.42415692583757 1.95124690054371 0.95124690054
 -1.42415692583757 2.14486680447989 1.1448668045
 -1.42415692583757 2.36038871803314 1.360388718
 -1.42415692583757 2.59858167635385 1.5985816764
 -1.42415692583757 2.8601894518599 1.8601894519
 -1.42415692583757 3.1398105481401 1.8601894519
 -1.42415692583757 3.40141832364615 1.5985816764
 -1.42415692583757 3.63961128196686 1.360388718
 -1.42415692583757 3.85513319552011 1.1448668045
 -1.42415692583757 4.04875309945629 0.95124690054
 -1.42415692583757 4.22126805776745 0.77873194223
 -1.42415692583757 4.37350647492034 0.62649352508
 -1.42415692583757 4.50633211688591 0.49366788311
 -1.42415692583757 4.62064907484962 0.37935092515
 -1.42415692583757 4.71740801409241 0.28259198591
 -1.42415692583757 4.79761422974922 0.20238577025
 -1.42415692583757 4.8623383407302 0.13766165927
 -1.42415692583757 4.912731023049 0.087268976951
 -1.42415692583757 4.95004432261394 0.049955677386
 -1.42415692583757 4.97566462680523 0.024335373195
 -1.42415692583757 4.99116900044039 0.0088309995596
 -1.42415692583757 4.99843888508169 0.0015611149183
 -1.42415692583757 5 0.0015611149183
 -1.27229110890815 1 0.0015611149183
 -1.27229110890815 1.00156111491831 0.0015611149183
 -1.27229110890815 1.00883099955961 0.0088309995596
 -1.27229110890815 1.02433537319477 0.024335373195
 -1.27229110890815 1.04995567738606 0.049955677386
 -1.27229110890815 1.087268976951 0.087268976951
 -1.27229110890815 1.1376616592698 0.13766165927
 -1.27229110890815 1.20238577025078 0.20238577025
 -1.27229110890815 1.28259198590759 0.28259198591
 -1.27229110890815 1.37935092515038 0.37935092515
 -1.27229110890815 1.49366788311409 0.49366788311
 -1.27229110890815 1.62649352507966 0.62649352508
 -1.27229110890815 1.77873194223255 0.77873194223
 -1.27229110890815 1.95124690054371 0.95124690054
 -1.27229110890815 2.14486680447989 1.1448668045
 -1.27229110890815 2.36038871803314 1.360388718
 -1.27229110890815 2.59858167635385 1.5985816764
 -1.27229110890815 2.8601894518599 1.8601894519
 -1.27229110890815 3.1398105481401 1.8601894519
 -1.27229110890815 3.40141832364615 1.5985816764
 -1.27229110890815 3.63961128196686 1.360388718
 -1.27229110890815 3.85513319552011 1.1448668045
 -1.27229110890815 4.04875309945629 0.95124690054
 -1.27229110890815 4.22126805776745 0.77873194223
 -1.27229110890815 4.37350647492034 0.62649352508
 -1.27229110890815 4.50633211688591 0.49366788311
 -1.27229110890815 4.62064907484962 0.37935092515
 -1.27229110890815 4.71740801409241 0.28259198591
 -1.27229110890815 4.79761422974922 0.20238577025
 -1.27229110890815 4.8623383407302 0.13766165927
 -1.27229110890815 4.912731023049 0.087268976951
 -1.27229110890815 4.95004432261394 0.049955677386
 -1.27229110890815 4.97566462680523 0.024335373195
 -1.27229110890815 4.99116900044039 0.0088309995596
 -1.27229110890815 4.99843888508169 0.0015611149183
 -1.27229110890815 5 0.0015611149183
 -1.12585436786962 1 0.0015611149183
 -1.12585436786962 1.00156111491831 0.0015611149183
 -1.12585436786962 1.00883099955961 0.0088309995596
 -1.12585436786962 1.02433537319477 0.024335373195
 -1.12585436786962 1.04995567738606 0.049955677386
 -1.12585436786962 1.087268976951 0.087268976951
 -1.12585436786962 1.1376616592698 0.13766165927
 -1.12585436786962 1.20238577025078 0.20238577025
 -1.12585436786962 1.28259198590759 0.28259198591
 -1.12585436786962 1.37935092515038 0.37935092515
 -1.12585436786962 1.49366788311409 0.49366788311
 -1.12585436786962 1.62649352507966 0.62649352508
 -1.12585436786962 1.77873194223255 0.77873194223
 -1.12585436786962 1.95124690054371 0.95124690054
 -1.12585436786962 2.14486680447989 1.1448668045
 -1.12585436786962 2.36038871803314 1.360388718
 -1.12585436786962 2.59858167635385 1.5985816764
 -1.12585436786962 2.8601894518599 1.8601894519
 -1.12585436786962 3.1398105481401 1.8601894519
 -1.12585436786962 3.40141832364615 1.5985816764
 -1.12585436786962 3.63961128196686 1.360388718
 -1.12585436786962 3.85513319552011 1.1448668045
 -1.12585436786962 4.04875309945629 0.95124690054
 -1.12585436786962 4.22126805776745 0.77873194223
 -1.12585436786962 4.37350647492034 0.62649352508
 -1.12585436786962 4.50633211688591 0.49366788311
 -1.12585436786962 4.62064907484962 0.37935092515
 -1.12585436786962 4.71740801409241 0.28259198591
 -1.12585436786962 4.79761422974922 0.20238577025
 -1.12585436786962 4.8623383407302 0.13766165927
 -1.12585436786962 4.912731023049 0.087268976951
 -1.12585436786962 4.95004432261394 0.049955677386
 -1.12585436786962 4.97566462680523 0.024335373195
 -1.12585436786962 4.99116900044039 0.0088309995596
 -1.12585436786962 4.99843888508169 0.0015611149183
 -1.12585436786962 5 0.0015611149183
 -0.985167021524033 1 0.0015611149183
 -0.985167021524033 1.00156111491831 0.0015611149183
 -0.985167021524033 1.00883099955961 0.0088309995596
 -0.985167021524033 1.02433537319477 0.024335373195
 -0.985167021524033 1.04995567738606 0.049955677386
 -0.985167021524033 1.087268976951 0.087268976951
 -0.985167021524033 1.1376616592698 0.13766165927
 -0.985167021524033 1.20238577025078 0.20238577025
 -0.985167021524033 1.28259198590759 0.28259198591
 -0.985167021524033 1.37935092515038 0.37935092515
 -0.985167021524033 1.49366788311409 0.49366788311
 -0.985167021524033 1.62649352507966 0.62649352508
 -0.985167021524033 1.77873194223255 0.77873194223
 -0.985167021524033 1.95124690054371 0.95124690054
 -0.985167021524033 2.14486680447989 1.1448668045
 -0.985167021524033 2.36038871803314 1.360388718
 -0.985167021524033 2.59858167635385 1.5985816764
 -0.985167021524033 2.8601894518599 1.8601894519
 -0.985167021524033 3.1398105481401 1.8601894519
 -0.985167021524033 3.40141832364615 1.5985816764
 -0.985167021524033 3.63961128196686 1.360388718
 -0.985167021524033 3.85513319552011 1.1448668045
 -0.985167021524033 4.04875309945629 0.95124690054
 -0.985167021524033 4.22126805776745 0.77873194223
 -0.985167021524033 4.37350647492034 0.62649352508
 -0.985167021524033 4.50633211688591 0.49366788311
 -0.985167021524033 4.62064907484962 0.37935092515
 -0.985167021524033 4.71740801409241 0.28259198591
 -0.985167021524033 4.79761422974922 0.20238577025
 -0.985167021524033 4.8623383407302 0.13766165927
 -0.985167021524033 4.912731023049 0.087268976951
 -0.985167021524033 4.95004432261394 0.049955677386
 -0.985167021524033 4.97566462680523 0.024335373195
 -0.985167021524033 4.99116900044039 0.0088309995596
 -0.985167021524033 4.99843888508169 0.0015611149183
 -0.985167021524033 5 0.0015611149183
 -0.850605415949583 1 0.0015611149183
 -0.850605415949583 1.00156111491831 0.0015611149183
 -0.850605415949583 1.00883099955961 0.0088309995596
 -0.850605415949583 1.02433537319477 0.024335373195