VARIABLES = "x" "y" "wd"
ZONE T="InnerCells" SOLUTIONTIME=0 DATAPACKING=POINT N=11671 E=22800 ZONETYPE=FETRIANGLE
 -4.1 0 0.00092641806138
 -3.950462178082 0 0.00092641806138
 -4.1 0.0009264180613837 0.00092641806138
 -3.804947685969 0 0.00092641806138
 -3.950462178082 0.0009264180613837 0.00092641806138
 -4.1 0.003971641173621 0.0039716411736
 -3.663438065941 0 0.00092641806138
 -3.804947685969 0.0009264180613837 0.00092641806138
 -3.950462178082 0.003971641173621 0.0039716411736
 -4.1 0.009305970004385 0.0093059700044
 -3.525914513568 0 0.00092641806138
 -3.663438065941 0.0009264180613837 0.00092641806138
 -3.804947685969 0.003971641173621 0.0039716411736
 -3.950462178082 0.009305970004385 0.0093059700044
 -4.1 0.01702679845042 0.01702679845
 -3.392357862692 0 0.00092641806138
 -3.525914513568 0.0009264180613837 0.00092641806138
 -3.663438065941 0.003971641173621 0.0039716411736
 -3.804947685969 0.009305970004385 0.0093059700044
 -3.950462178082 0.01702679845042 0.01702679845
 -4.1 0.027204705103 0.027204705103
 -3.262748569391 0 0.00092641806138
 -3.392357862692 0.0009264180613837 0.00092641806138
 -3.525914513568 0.003971641173621 0.0039716411736
 -3.663438065941 0.009305970004385 0.0093059700044
 -3.804947685969 0.01702679845042 0.01702679845
 -3.950462178082 0.027204705103 0.027204705103
 -4.1 0.03989556677543 0.039895566775
 -3.137066694796 0 0.00092641806138
 -3.262748569391 0.0009264180613837 0.00092641806138
 -3.392357862692 0.003971641173621 0.0039716411736
 -3.525914513568 0.009305970004385 0.0093059700044
 -3.663438065941 0.01702679845042 0.01702679845
 -3.804947685969 0.027204705103 0.027204705103
 -3.950462178082 0.03989556677543 0.039895566775
 -4.1 0.0551458579094 0.055145857909
 -3.015291886665 0 0.00092641806138
 -3.137066694796 0.0009264180613837 0.00092641806138
 -3.262748569391 0.003971641173621 0.0039716411736
 -3.392357862692 0.009305970004385 0.0093059700044
 -3.525914513568 0.01702679845042 0.01702679845
 -3.663438065941 0.027204705103 0.027204705103
 -3.804947685969 0.03989556677543 0.039895566775
 -3.950462178082 0.0551458579094 0.055145857909
 -4.1 0.07299548292444 0.072995482924
 -2.897403359583 0 0.00092641806138
 -3.015291886665 0.0009264180613837 0.00092641806138
 -3.137066694796 0.003971641173621 0.0039716411736
 -3.262748569391 0.009305970004385 0.0093059700044
 -3.392357862692 0.01702679845042 0.01702679845
 -3.525914513568 0.027204705103 0.027204705103
 -3.663438065941 0.03989556677543 0.039895566775
 -3.804947685969 0.0551458579094 0.055145857909
 -3.950462178082 0.07299548292444 0.072995482924
 -4.1 0.09347947900883 0.093479479009
 -2.78337987365 0 0.00092641806138
 -2.897403359583 0.0009264180613837 0.00092641806138
 -3.015291886665 0.003971641173621 0.0039716411736
 -3.137066694796 0.009305970004385 0.0093059700044
 -3.262748569391 0.01702679845042 0.01702679845
 -3.392357862692 0.027204705103 0.027204705103
 -3.525914513568 0.03989556677543 0.039895566775
 -3.663438065941 0.0551458579094 0.055145857909
 -3.804947685969 0.07299548292444 0.072995482924
 -3.950462178082 0.09347947900883 0.093479479009
 -4.1 0.1166291239421 0.11662912394
 -2.673199711484 0 0.00092641806138
 -2.78337987365 0.0009264180613837 0.00092641806138
 -2.897403359583 0.003971641173621 0.0039716411736
 -3.015291886665 0.009305970004385 0.0093059700044
 -3.137066694796 0.01702679845042 0.01702679845
 -3.262748569391 0.027204705103 0.027204705103
 -3.392357862692 0.03989556677543 0.039895566775
 -3.525914513568 0.0551458579094 0.055145857909
 -3.663438065941 0.07299548292444 0.072995482924
 -3.804947685969 0.09347947900883 0.093479479009
 -3.950462178082 0.1166291239421 0.11662912394
 -4.1 0.1424726992061 0.14247269921
 -2.566840653367 0 0.00092641806138
 -2.673199711484 0.0009264180613837 0.00092641806138
 -2.78337987365 0.003971641173621 0.0039716411736
 -2.897403359583 0.009305970004385 0.0093059700044
 -3.015291886665 0.01702679845042 0.01702679845
 -3.137066694796 0.027204705103 0.027204705103
 -3.262748569391 0.03989556677543 0.039895566775
 -3.392357862692 0.0551458579094 0.055145857909
 -3.525914513568 0.07299548292444 0.072995482924
 -3.663438065941 0.09347947900883 0.093479479009
 -3.804947685969 0.1166291239421 0.11662912394
 -3.950462178082 0.1424726992061 0.14247269921
 -4.1 0.171036038971 0.17103603897
 -2.464279950322 0 0.00092641806138
 -2.566840653367 0.0009264180613837 0.00092641806138
 -2.673199711484 0.003971641173621 0.0039716411736
 -2.78337987365 0.009305970004385 0.0093059700044
 -2.897403359583 0.01702679845042 0.01702679845
 -3.015291886665 0.027204705103 0.027204705103
 -3.137066694796 0.03989556677543 0.039895566775
 -3.262748569391 0.0551458579094 0.055145857909
 -3.392357862692 0.07299548292444 0.072995482924
 -3.525914513568 0.09347947900883 0.093479479009
 -3.663438065941 0.1166291239421 0.11662912394
 -3.804947685969 0.1424726992061 0.14247269921
 -3.950462178082 0.171036038971 0.17103603897
 -4.1 0.2023429387772 0.20234293878
 -2.36549429486 0 0.00092641806138
 -2.464279950322 0.0009264180613837 0.00092641806138
 -2.566840653367 0.003971641173621 0.0039716411736
 -2.673199711484 0.009305970004385 0.0093059700044
 -2.78337987365 0.01702679845042 0.01702679845
 -2.897403359583 0.027204705103 0.027204705103
 -3.015291886665 0.03989556677543 0.039895566775
 -3.137066694796 0.0551458579094 0.055145857909
 -3.262748569391 0.07299548292444 0.072995482924
 -3.392357862692 0.09347947900883 0.093479479009
 -3.525914513568 0.1166291239421 0.11662912394
 -3.663438065941 0.1424726992061 0.14247269921
 -3.804947685969 0.171036038971 0.17103603897
 -3.950462178082 0.2023429387772 0.20234293878
 -4.1 0.2364154683044 0.2364154683
 -2.270459789153 0 0.00092641806138
 -2.36549429486 0.0009264180613837 0.00092641806138
 -2.464279950322 0.003971641173621 0.0039716411736
 -2.566840653367 0.009305970004385 0.0093059700044
 -2.673199711484 0.01702679845042 0.01702679845
 -2.78337987365 0.027204705103 0.027204705103
 -2.897403359583 0.03989556677543 0.039895566775
 -3.015291886665 0.0551458579094 0.055145857909
 -3.137066694796 0.07299548292444 0.072995482924
 -3.262748569391 0.09347947900883 0.093479479009
 -3.392357862692 0.1166291239421 0.11662912394
 -3.525914513568 0.1424726992061 0.14247269921
 -3.663438065941 0.171036038971 0.17103603897
 -3.804947685969 0.2023429387772 0.20234293878
 -3.950462178082 0.2364154683044 0.2364154683
 -4.1 0.273274216274 0.27327421627
 -2.179151910273 0 0.00092641806138
 -2.270459789153 0.0009264180613837 0.00092641806138
 -2.36549429486 0.003971641173621 0.0039716411736
 -2.464279950322 0.009305970004385 0.0093059700044
 -2.566840653367 0.01702679845042 0.01702679845
 -2.673199711484 0.027204705103 0.027204705103
 -2.78337987365 0.03989556677543 0.039895566775
 -2.897403359583 0.0551458579094 0.055145857909
 -3.015291886665 0.07299548292444 0.072995482924
 -3.137066694796 0.09347947900883 0.093479479009
 -3.262748569391 0.1166291239421 0.11662912394
 -3.392357862692 0.1424726992061 0.14247269921
 -3.525914513568 0.171036038971 0.17103603897
 -3.663438065941 0.2023429387772 0.20234293878
 -3.804947685969 0.2364154683044 0.2364154683
 -3.950462178082 0.273274216274 0.27327421627
 -4.1 0.3129384859337 0.31293848593
 -2.091545472154 0 0.00092641806138
 -2.179151910273 0.0009264180613837 0.00092641806138
 -2.270459789153 0.003971641173621 0.0039716411736
 -2.36549429486 0.009305970004385 0.0093059700044
 -2.464279950322 0.01702679845042 0.01702679845
 -2.566840653367 0.027204705103 0.027204705103
 -2.673199711484 0.03989556677543 0.039895566775
 -2.78337987365 0.0551458579094 0.055145857909
 -2.897403359583 0.07299548292444 0.072995482924
 -3.015291886665 0.09347947900883 0.093479479009
 -3.137066694796 0.1166291239421 0.11662912394
 -3.262748569391 0.1424726992061 0.14247269921
 -3.392357862692 0.171036038971 0.17103603897
 -3.525914513568 0.2023429387772 0.20234293878
 -3.663438065941 0.2364154683044 0.2364154683
 -3.804947685969 0.273274216274 0.27327421627
 -3.950462178082 0.3129384859337 0.31293848593
 -4.1 0.3554264536753 0.35542645368
 -2.007614583815 0 0.00092641806138
 -2.091545472154 0.0009264180613837 0.00092641806138
 -2.179151910273 0.003971641173621 0.0039716411736
 -2.270459789153 0.009305970004385 0.0093059700044
 -2.36549429486 0.01702679845042 0.01702679845
 -2.464279950322 0.027204705103 0.027204705103
 -2.566840653367 0.03989556677543 0.039895566775
 -2.673199711484 0.0551458579094 0.055145857909
 -2.78337987365 0.07299548292444 0.072995482924
 -2.897403359583 0.09347947900883 0.093479479009
 -3.015291886665 0.1166291239421 0.11662912394
 -3.137066694796 0.1424726992061 0.14247269921
 -3.262748569391 0.171036038971 0.17103603897
 -3.392357862692 0.2023429387772 0.20234293878
 -3.525914513568 0.2364154683044 0.2364154683
 -3.663438065941 0.273274216274 0.27327421627
 -3.804947685969 0.3129384859337 0.31293848593
 -3.950462178082 0.3554264536753 0.35542645368
 -4.1 0.4007552995735 0.40075529957
 -1.927332603347 0 0.00092641806138
 -2.007614583815 0.0009264180613837 0.00092641806138
 -2.091545472154 0.003971641173621 0.0039716411736
 -2.179151910273 0.009305970004385 0.0093059700044
 -2.270459789153 0.01702679845042 0.01702679845
 -2.36549429486 0.027204705103 0.027204705103
 -2.464279950322 0.03989556677543 0.039895566775
 -2.566840653367 0.0551458579094 0.055145857909
 -2.673199711484 0.07299548292444 0.072995482924
 -2.78337987365 0.09347947900883 0.093479479009
 -2.897403359583 0.1166291239421 0.11662912394
 -3.015291886665 0.1424726992061 0.14247269921
 -3.137066694796 0.171036038971 0.17103603897
 -3.262748569391 0.2023429387772 0.20234293878
 -3.392357862692 0.2364154683044 0.2364154683
 -3.525914513568 0.273274216274 0.27327421627
 -3.663438065941 0.3129384859337 0.31293848593
 -3.804947685969 0.3554264536753 0.35542645368
 -3.950462178082 0.4007552995735 0.40075529957
 -4.1 0.4489413161526 0.44894131615
 -1.85067208704 0 0.00092641806138
 -1.927332603347 0.0009264180613837 0.00092641806138
 -2.007614583815 0.003971641173621 0.0039716411736
 -2.091545472154 0.009305970004385 0.0093059700044
 -2.179151910273 0.01702679845042 0.01702679845
 -2.270459789153 0.027204705103 0.027204705103
 -2.36549429486 0.03989556677543 0.039895566775
 -2.464279950322 0.0551458579094 0.055145857909
 -2.566840653367 0.07299548292444 0.072995482924
 -2.673199711484 0.09347947900883 0.093479479009
 -2.78337987365 0.1166291239421 0.11662912394
 -2.897403359583 0.1424726992061 0.14247269921
 -3.015291886665 0.171036038971 0.17103603897
 -3.137066694796 0.2023429387772 0.20234293878
 -3.262748569391 0.2364154683044 0.2364154683
 -3.392357862692 0.273274216274 0.27327421627
 -3.525914513568 0.3129384859337 0.31293848593
 -3.663438065941 0.3554264536753 0.35542645368
 -3.804947685969 0.4007552995735 0.40075529957
 -3.950462178082 0.4489413161526 0.44894131615
 -4.1 0.5 0.5
 -1.777604732953 0 0.00092641806138
 -1.85067208704 0.0009264180613837 0.00092641806138
 -1.927332603347 0.003971641173621 0.0039716411736
 -2.007614583815 0.009305970004385 0.0093059700044
 -2.091545472154 0.01702679845042 0.01702679845
 -2.179151910273 0.027204705103 0.027204705103
 -2.270459789153 0.03989556677543 0.039895566775
 -2.36549429486 0.0551458579094 0.055145857909
 -2.464279950322 0.07299548292444 0.072995482924
 -2.566840653367 0.09347947900883 0.093479479009
 -2.673199711484 0.1166291239421 0.11662912394
 -2.78337987365 0.1424726992061 0.14247269921
 -2.897403359583 0.171036038971 0.17103603897
 -3.015291886665 0.2023429387772 0.20234293878
 -3.137066694796 0.2364154683044 0.2364154683
 -3.262748569391 0.273274216274 0.27327421627
 -3.392357862692 0.3129384859337 0.31293848593
 -3.525914513568 0.3554264536753 0.35542645368
 -3.663438065941 0.4007552995735 0.40075529957
 -3.804947685969 0.4489413161526 0.44894131615
 -3.950462178082 0.5 0.5
 -4.1 0.5510586838474 0.55105868385
 -1.708101318034 0 0.00092641806138
 -1.777604732953 0.0009264180613837 0.00092641806138
 -1.85067208704 0.003971641173621 0.0039716411736
 -1.927332603347 0.009305970004385 0.0093059700044
 -2.007614583815 0.01702679845042 0.01702679845
 -2.091545472154 0.027204705103 0.027204705103
 -2.179151910273 0.03989556677543 0.039895566775
 -2.270459789153 0.0551458579094 0.055145857909
 -2.36549429486 0.07299548292444 0.072995482924
 -2.464279950322 0.09347947900883 0.093479479009
 -2.566840653367 0.1166291239421 0.11662912394
 -2.673199711484 0.1424726992061 0.14247269921
 -2.78337987365 0.171036038971 0.17103603897
 -2.897403359583 0.2023429387772 0.20234293878
 -3.015291886665 0.2364154683044 0.2364154683
 -3.137066694796 0.273274216274 0.27327421627
 -3.262748569391 0.3129384859337 0.31293848593
 -3.392357862692 0.3554264536753 0.35542645368
 -3.525914513568 0.4007552995735 0.40075529957
 -3.663438065941 0.4489413161526 0.44894131615
 -3.804947685969 0.5 0.5
 -3.950462178082 0.5510586838474 0.55105868385
 -4.1 0.5992447004265 0.59924470043
 -1.642131627778 0 0.00092641806138
 -1.708101318034 0.0009264180613837 0.00092641806138
 -1.777604732953 0.003971641173621 0.0039716411736
 -1.85067208704 0.009305970004385 0.0093059700044
 -1.927332603347 0.01702679845042 0.01702679845
 -2.007614583815 0.027204705103 0.027204705103
 -2.091545472154 0.03989556677543 0.039895566775
 -2.179151910273 0.0551458579094 0.055145857909
 -2.270459789153 0.07299548292444 0.072995482924
 -2.36549429486 0.09347947900883 0.093479479009
 -2.464279950322 0.1166291239421 0.11662912394
 -2.566840653367 0.1424726992061 0.14247269921
 -2.673199711484 0.171036038971 0.17103603897
 -2.78337987365 0.2023429387772 0.20234293878
 -2.897403359583 0.2364154683044 0.2364154683
 -3.015291886665 0.273274216274 0.27327421627
 -3.137066694796 0.3129384859337 0.31293848593
 -3.262748569391 0.3554264536753 0.35542645368
 -3.392357862692 0.4007552995735 0.40075529957
 -3.525914513568 0.4489413161526 0.44894131615
 -3.663438065941 0.5 0.5
 -3.804947685969 0.5510586838474 0.55105868385
 -3.950462178082 0.5992447004265 0.59924470043
 -4.1 0.6445735463247 0.64457354632
 -1.579664377152 0 0.00092641806138
 -1.642131627778 0.0009264180613837 0.00092641806138
 -1.708101318034 0.003971641173621 0.0039716411736
 -1.777604732953 0.009305970004385 0.0093059700044
 -1.85067208704 0.01702679845042 0.01702679845
 -1.927332603347 0.027204705103 0.027204705103
 -2.007614583815 0.03989556677543 0.039895566775
 -2.091545472154 0.0551458579094 0.055145857909
 -2.179151910273 0.07299548292444 0.072995482924
 -2.270459789153 0.09347947900883 0.093479479009
 -2.36549429486 0.1166291239421 0.11662912394
 -2.464279950322 0.1424726992061 0.14247269921
 -2.566840653367 0.171036038971 0.17103603897
 -2.673199711484 0.2023429387772 0.20234293878
 -2.78337987365 0.2364154683044 0.2364154683
 -2.897403359583 0.273274216274 0.27327421627
 -3.015291886665 0.3129384859337 0.31293848593
 -3.137066694796 0.3554264536753 0.35542645368
 -3.262748569391 0.4007552995735 0.40075529957
 -3.392357862692 0.4489413161526 0.44894131615
 -3.525914513568 0.5 0.5
 -3.663438065941 0.5510586838474 0.55105868385
 -3.804947685969 0.5992447004265 0.59924470043
 -3.950462178082 0.6445735463247 0.64457354632
 -4.1 0.6870615140663 0.68706151407
 -1.520667121243 0 0.00092641806138
 -1.579664377152 0.0009264180613837 0.00092641806138
 -1.642131627778 0.003971641173621 0.0039716411736
 -1.708101318034 0.009305970004385 0.0093059700044
 -1.777604732953 0.01702679845042 0.01702679845
 -1.85067208704 0.027204705103 0.027204705103
 -1.927332603347 0.03989556677543 0.039895566775
 -2.007614583815 0.0551458579094 0.055145857909
 -2.091545472154 0.07299548292444 0.072995482924
 -2.179151910273 0.09347947900883 0.093479479009
 -2.270459789153 0.1166291239421 0.11662912394
 -2.36549429486 0.1424726992061 0.14247269921
 -2.464279950322 0.171036038971 0.17103603897
 -2.566840653367 0.2023429387772 0.20234293878
 -2.673199711484 0.2364154683044 0.2364154683
 -2.78337987365 0.273274216274 0.27327421627
 -2.897403359583 0.3129384859337 0.31293848593
 -3.015291886665 0.3554264536753 0.35542645368
 -3.137066694796 0.4007552995735 0.40075529957
 -3.262748569391 0.4489413161526 0.44894131615
 -3.392357862692 0.5 0.5
 -3.525914513568 0.5510586838474 0.55105868385
 -3.663438065941 0.5992447004265 0.59924470043
 -3.804947685969 0.6445735463247 0.64457354632
 -3.950462178082 0.6870615140663 0.68706151407
 -4.1 0.726725783726 0.72672578373
 -1.465106153739 0 0.00092641806138
 -1.520667121243 0.0009264180613837 0.00092641806138
 -1.579664377152 0.003971641173621 0.0039716411736
 -1.642131627778 0.009305970004385 0.0093059700044
 -1.708101318034 0.01702679845042 0.01702679845
 -1.777604732953 0.027204705103 0.027204705103
 -1.85067208704 0.03989556677543 0.039895566775
 -1.927332603347 0.0551458579094 0.055145857909
 -2.007614583815 0.07299548292444 0.072995482924
 -2.091545472154 0.09347947900883 0.093479479009
 -2.179151910273 0.1166291239421 0.11662912394
 -2.270459789153 0.1424726992061 0.14247269921
 -2.36549429486 0.171036038971 0.17103603897
 -2.464279950322 0.2023429387772 0.20234293878
 -2.566840653367 0.2364154683044 0.2364154683
 -2.673199711484 0.273274216274 0.27327421627
 -2.78337987365 0.3129384859337 0.31293848593
 -2.897403359583 0.3554264536753 0.35542645368
 -3.015291886665 0.4007552995735 0.40075529957
 -3.137066694796 0.4489413161526 0.44894131615
 -3.262748569391 0.5 0.5
 -3.392357862692 0.5510586838474 0.55105868385
 -3.525914513568 0.5992447004265 0.59924470043
 -3.663438065941 0.6445735463247 0.64457354632
 -3.804947685969 0.6870615140663 0.68706151407
 -3.950462178082 0.726725783726 0.72672578373
 -4.1 0.7635845316956 0.7635845317
 -1.412946390871 0 0.00092641806138
 -1.465106153739 0.0009264180613837 0.00092641806138
 -1.520667121243 0.003971641173621 0.0039716411736
 -1.579664377152 0.009305970004385 0.0093059700044
 -1.642131627778 0.01702679845042 0.01702679845
 -1.708101318034 0.027204705103 0.027204705103
 -1.777604732953 0.03989556677543 0.039895566775
 -1.85067208704 0.0551458579094 0.055145857909
 -1.927332603347 0.07299548292444 0.072995482924
 -2.007614583815 0.09347947900883 0.093479479009
 -2.091545472154 0.1166291239421 0.11662912394
 -2.179151910273 0.1424726992061 0.14247269921
 -2.270459789153 0.171036038971 0.17103603897
 -2.36549429486 0.2023429387772 0.20234293878
 -2.464279950322 0.2364154683044 0.2364154683
 -2.566840653367 0.273274216274 0.27327421627
 -2.673199711484 0.3129384859337 0.31293848593
 -2.78337987365 0.3554264536753 0.35542645368
 -2.897403359583 0.4007552995735 0.40075529957
 -3.015291886665 0.4489413161526 0.44894131615
 -3.137066694796 0.5 0.5
 -3.262748569391 0.5510586838474 0.55105868385
 -3.392357862692 0.5992447004265 0.59924470043
 -3.525914513568 0.6445735463247 0.64457354632
 -3.663438065941 0.6870615140663 0.68706151407
 -3.804947685969 0.726725783726 0.72672578373
 -3.950462178082 0.7635845316956 0.7635845317
 -4.1 0.7976570612228 0.79765706122
 -1.364151237835 0 0.00092641806138
 -1.412946390871 0.0009264180613837 0.00092641806138
 -1.465106153739 0.003971641173621 0.0039716411736
 -1.520667121243 0.009305970004385 0.0093059700044
 -1.579664377152 0.01702679845042 0.01702679845
 -1.642131627778 0.027204705103 0.027204705103
 -1.708101318034 0.03989556677543 0.039895566775
 -1.777604732953 0.0551458579094 0.055145857909
 -1.85067208704 0.07299548292444 0.072995482924
 -1.927332603347 0.09347947900883 0.093479479009
 -2.007614583815 0.1166291239421 0.11662912394
 -2.091545472154 0.1424726992061 0.14247269921
 -2.179151910273 0.171036038971 0.17103603897
 -2.270459789153 0.2023429387772 0.20234293878
 -2.36549429486 0.2364154683044 0.2364154683
 -2.464279950322 0.273274216274 0.27327421627
 -2.566840653367 0.3129384859337 0.31293848593
 -2.673199711484 0.3554264536753 0.35542645368
 -2.78337987365 0.4007552995735 0.40075529957
 -2.897403359583 0.4489413161526 0.44894131615
 -3.015291886665 0.5 0.5
 -3.137066694796 0.5510586838474 0.55105868385
 -3.262748569391 0.5992447004265 0.59924470043
 -3.392357862692 0.6445735463247 0.64457354632
 -3.525914513568 0.6870615140663 0.68706151407
 -3.663438065941 0.726725783726 0.72672578373
 -3.804947685969 0.7635845316956 0.7635845317
 -3.950462178082 0.7976570612228 0.79765706122
 -4.1 0.828963961029 0.82896396103
 -1.318682433894 0 0.00092641806138
 -1.364151237835 0.0009264180613837 0.00092641806138
 -1.412946390871 0.003971641173621 0.0039716411736
 -1.465106153739 0.009305970004385 0.0093059700044
 -1.520667121243 0.01702679845042 0.01702679845
 -1.579664377152 0.027204705103 0.027204705103
 -1.642131627778 0.03989556677543 0.039895566775
 -1.708101318034 0.0551458579094 0.055145857909
 -1.777604732953 0.07299548292444 0.072995482924
 -1.85067208704 0.09347947900883 0.093479479009
 -1.927332603347 0.1166291239421 0.11662912394
 -2.007614583815 0.1424726992061 0.14247269921
 -2.091545472154 0.171036038971 0.17103603897
 -2.179151910273 0.2023429387772 0.20234293878
 -2.270459789153 0.2364154683044 0.2364154683
 -2.36549429486 0.273274216274 0.27327421627
 -2.464279950322 0.3129384859337 0.31293848593
 -2.566840653367 0.3554264536753 0.35542645368
 -2.673199711484 0.4007552995735 0.40075529957
 -2.78337987365 0.4489413161526 0.44894131615
 -2.897403359583 0.5 0.5
 -3.015291886665 0.5510586838474 0.55105868385
 -3.137066694796 0.5992447004265 0.59924470043
 -3.262748569391 0.6445735463247 0.64457354632
 -3.392357862692 0.6870615140663 0.68706151407
 -3.525914513568 0.726725783726 0.72672578373
 -3.663438065941 0.7635845316956 0.7635845317
 -3.804947685969 0.7976570612228 0.79765706122
 -3.950462178082 0.828963961029 0.82896396103
 -4.1 0.8575273007939 0.85752730079
 -1.276499871273 0 0.00092641806138
 -1.318682433894 0.0009264180613837 0.00092641806138
 -1.364151237835 0.003971641173621 0.0039716411736
 -1.412946390871 0.009305970004385 0.0093059700044
 -1.465106153739 0.01702679845042 0.01702679845
 -1.520667121243 0.027204705103 0.027204705103
 -1.579664377152 0.03989556677543 0.039895566775
 -1.642131627778 0.0551458579094 0.055145857909
 -1.708101318034 0.07299548292444 0.072995482924
 -1.777604732953 0.09347947900883 0.093479479009
 -1.85067208704 0.1166291239421 0.11662912394
 -1.927332603347 0.1424726992061 0.14247269921
 -2.007614583815 0.171036038971 0.17103603897
 -2.091545472154 0.2023429387772 0.20234293878
 -2.179151910273 0.2364154683044 0.2364154683
 -2.270459789153 0.273274216274 0.27327421627
 -2.36549429486 0.3129384859337 0.31293848593
 -2.464279950322 0.3554264536753 0.35542645368
 -2.566840653367 0.4007552995735 0.40075529957
 -2.673199711484 0.4489413161526 0.44894131615
 -2.78337987365 0.5 0.5
 -2.897403359583 0.5510586838474 0.55105868385
 -3.015291886665 0.5992447004265 0.59924470043
 -3.137066694796 0.6445735463247 0.64457354632
 -3.262748569391 0.6870615140663 0.68706151407
 -3.392357862692 0.726725783726 0.72672578373
 -3.525914513568 0.7635845316956 0.7635845317
 -3.663438065941 0.7976570612228 0.79765706122
 -3.804947685969 0.828963961029 0.82896396103
 -3.950462178082 0.8575273007939 0.85752730079
 -4.1 0.8833708760579 0.88337087606
 -1.237561381412 0 0.00092641806138
 -1.276499871273 0.0009264180613837 0.00092641806138
 -1.318682433894 0.003971641173621 0.0039716411736
 -1.364151237835 0.009305970004385 0.0093059700044
 -1.412946390871 0.01702679845042 0.01702679845
 -1.465106153739 0.027204705103 0.027204705103
 -1.520667121243 0.03989556677543 0.039895566775
 -1.579664377152 0.0551458579094 0.055145857909
 -1.642131627778 0.07299548292444 0.072995482924
 -1.708101318034 0.09347947900883 0.093479479009
 -1.777604732953 0.1166291239421 0.11662912394
 -1.85067208704 0.1424726992061 0.14247269921
 -1.927332603347 0.171036038971 0.17103603897
 -2.007614583815 0.2023429387772 0.20234293878
 -2.091545472154 0.2364154683044 0.2364154683
 -2.179151910273 0.273274216274 0.27327421627
 -2.270459789153 0.3129384859337 0.31293848593
 -2.36549429486 0.3554264536753 0.35542645368
 -2.464279950322 0.4007552995735 0.40075529957
 -2.566840653367 0.4489413161526 0.44894131615
 -2.673199711484 0.5 0.5
 -2.78337987365 0.5510586838474 0.55105868385
 -2.897403359583 0.5992447004265 0.59924470043
 -3.015291886665 0.6445735463247 0.64457354632
 -3.137066694796 0.6870615140663 0.68706151407
 -3.262748569391 0.726725783726 0.72672578373
 -3.392357862692 0.7635845316956 0.7635845317
 -3.525914513568 0.7976570612228 0.79765706122
 -3.663438065941 0.828963961029 0.82896396103
 -3.804947685969 0.8575273007939 0.85752730079
 -3.950462178082 0.8833708760579 0.88337087606
 -4.1 0.9065205209912 0.90652052099
 -1.201822480052 0 0.00092641806138
 -1.237561381412 0.0009264180613837 0.00092641806138
 -1.276499871273 0.003971641173621 0.0039716411736
 -1.318682433894 0.009305970004385 0.0093059700044
 -1.364151237835 0.01702679845042 0.01702679845
 -1.412946390871 0.027204705103 0.027204705103
 -1.465106153739 0.03989556677543 0.039895566775
 -1.520667121243 0.0551458579094 0.055145857909
 -1.579664377152 0.07299548292444 0.072995482924
 -1.642131627778 0.09347947900883 0.093479479009
 -1.708101318034 0.1166291239421 0.11662912394
 -1.777604732953 0.1424726992061 0.14247269921
 -1.85067208704 0.171036038971 0.17103603897
 -1.927332603347 0.2023429387772 0.20234293878
 -2.007614583815 0.2364154683044 0.2364154683
 -2.091545472154 0.273274216274 0.27327421627
 -2.179151910273 0.3129384859337 0.31293848593
 -2.270459789153 0.3554264536753 0.35542645368
 -2.36549429486 0.4007552995735 0.40075529957
 -2.464279950322 0.4489413161526 0.44894131615
 -2.566840653367 0.5 0.5
 -2.673199711484 0.5510586838474 0.55105868385
 -2.78337987365 0.5992447004265 0.59924470043
 -2.897403359583 0.6445735463247 0.64457354632
 -3.015291886665 0.6870615140663 0.68706151407
 -3.137066694796 0.726725783726 0.72672578373
 -3.262748569391 0.7635845316956 0.7635845317
 -3.392357862692 0.7976570612228 0.79765706122
 -3.525914513568 0.828963961029 0.82896396103
 -3.663438065941 0.8575273007939 0.85752730079
 -3.804947685969 0.8833708760579 0.88337087606
 -3.950462178082 0.9065205209912 0.90652052099
 -4.1 0.9270045170756 0.92700451708
 -1.169236059573 0 0.00092641806138
 -1.201822480052 0.0009264180613837 0.00092641806138
 -1.237561381412 0.003971641173621 0.0039716411736
 -1.276499871273 0.009305970004385 0.0093059700044
 -1.318682433894 0.01702679845042 0.01702679845
 -1.364151237835 0.027204705103 0.027204705103
 -1.412946390871 0.03989556677543 0.039895566775
 -1.465106153739 0.0551458579094 0.055145857909
 -1.520667121243 0.07299548292444 0.072995482924
 -1.579664377152 0.09347947900883 0.093479479009
 -1.642131627778 0.1166291239421 0.11662912394
 -1.708101318034 0.1424726992061 0.14247269921
 -1.777604732953 0.171036038971 0.17103603897
 -1.85067208704 0.2023429387772 0.20234293878
 -1.927332603347 0.2364154683044 0.2364154683
 -2.007614583815 0.273274216274 0.27327421627
 -2.091545472154 0.3129384859337 0.31293848593
 -2.179151910273 0.3554264536753 0.35542645368
 -2.270459789153 0.4007552995735 0.40075529957
 -2.36549429486 0.4489413161526 0.44894131615
 -2.464279950322 0.5 0.5
 -2.566840653367 0.5510586838474 0.55105868385
 -2.673199711484 0.5992447004265 0.59924470043
 -2.78337987365 0.6445735463247 0.64457354632
 -2.897403359583 0.6870615140663 0.68706151407
 -3.015291886665 0.726725783726 0.72672578373
 -3.137066694796 0.7635845316956 0.7635845317
 -3.262748569391 0.7976570612228 0.79765706122
 -3.392357862692 0.828963961029 0.82896396103
 -3.525914513568 0.8575273007939 0.85752730079
 -3.663438065941 0.8833708760579 0.88337087606
 -3.804947685969 0.9065205209912 0.90652052099
 -3.950462178082 0.9270045170756 0.92700451708
 -4.1 0.9448541420906 0.94485414209
 -1.139752012568 0 0.00092641806138
 -1.169236059573 0.0009264180613837 0.00092641806138
 -1.201822480052 0.003971641173621 0.0039716411736
 -1.237561381412 0.009305970004385 0.0093059700044
 -1.276499871273 0.01702679845042 0.01702679845
 -1.318682433894 0.027204705103 0.027204705103
 -1.364151237835 0.03989556677543 0.039895566775
 -1.412946390871 0.0551458579094 0.055145857909
 -1.465106153739 0.07299548292444 0.072995482924
 -1.520667121243 0.09347947900883 0.093479479009
 -1.579664377152 0.1166291239421 0.11662912394
 -1.642131627778 0.1424726992061 0.14247269921
 -1.708101318034 0.171036038971 0.17103603897
 -1.777604732953 0.2023429387772 0.20234293878
 -1.85067208704 0.2364154683044 0.2364154683
 -1.927332603347 0.273274216274 0.27327421627
 -2.007614583815 0.3129384859337 0.31293848593
 -2.091545472154 0.3554264536753 0.35542645368
 -2.179151910273 0.4007552995735 0.40075529957
 -2.270459789153 0.4489413161526 0.44894131615
 -2.36549429486 0.5 0.5
 -2.464279950322 0.5510586838474 0.55105868385
 -2.566840653367 0.5992447004265 0.59924470043
 -2.673199711484 0.6445735463247 0.64457354632
 -2.78337987365 0.6870615140663 0.68706151407
 -2.897403359583 0.726725783726 0.72672578373
 -3.015291886665 0.7635845316956 0.7635845317
 -3.137066694796 0.7976570612228 0.79765706122
 -3.262748569391 0.828963961029 0.82896396103
 -3.392357862692 0.8575273007939 0.85752730079
 -3.525914513568 0.8833708760579 0.88337087606
 -3.663438065941 0.9065205209912 0.90652052099
 -3.804947685969 0.9270045170756 0.92700451708
 -3.950462178082 0.9448541420906 0.94485414209
 -4.1 0.9601044332246 0.96010443322
 -1.113316763922 0 0.00092641806138
 -1.139752012568 0.0009264180613837 0.00092641806138
 -1.169236059573 0.003971641173621 0.0039716411736
 -1.201822480052 0.009305970004385 0.0093059700044
 -1.237561381412 0.01702679845042 0.01702679845
 -1.276499871273 0.027204705103 0.027204705103
 -1.318682433894 0.03989556677543 0.039895566775
 -1.364151237835 0.0551458579094 0.055145857909
 -1.412946390871 0.07299548292444 0.072995482924
 -1.465106153739 0.09347947900883 0.093479479009
 -1.520667121243 0.1166291239421 0.11662912394
 -1.579664377152 0.1424726992061 0.14247269921
 -1.642131627778 0.171036038971 0.17103603897
 -1.708101318034 0.2023429387772 0.20234293878
 -1.777604732953 0.2364154683044 0.2364154683
 -1.85067208704 0.273274216274 0.27327421627
 -1.927332603347 0.3129384859337 0.31293848593