VARIABLES = "x" "y" "wd"
ZONE T="InnerCells" SOLUTIONTIME=0 DATAPACKING=POINT N=138 E=180 ZONETYPE=FETRIANGLE
 0 0 0.0025118864315
 0 0.00251188643150958 0.0025118864315
 0 0.00761461575486351 0.0076146157549
 0 0.0145678012449061 0.014567801245
 0 0.0230831984945154 0.023083198495
 0 0.0329876977693224 0.032987697769
 0 0.04416131536907 0.044161315369
 0 0.0565141062813108 0.056514106281
 0 0.0699751727323698 0.069975172732
 0 0.0844866354023613 0.084486635402
 0 0.1 0.1
 0.05 0 0.0025118864315
 0.05 0.00251188643150958 0.0025118864315
 0.05 0.00761461575486351 0.0076146157549
 0.05 0.0145678012449061 0.014567801245
 0.05 0.0230831984945154 0.023083198495
 0.05 0.0329876977693224 0.032987697769
 0.05 0.04416131536907 0.044161315369
 0.05 0.0565141062813108 0.056514106281
 0.05 0.0699751727323698 0.069975172732
 0.05 0.0844866354023613 0.084486635402
 0.05 0.1 0.1
 0.1 0 0.0025118864315
 0.1 0.00251188643150958 0.0025118864315
 0.1 0.00761461575486351 0.0076146157549
 0.1 0.0145678012449061 0.014567801245
 0.1 0.0230831984945154 0.023083198495
 0.1 0.0329876977693224 0.032987697769
 0.1 0.04416131536907 0.044161315369
 0.1 0.0565141062813108 0.056514106281
 0.1 0.0699751727323698 0.069975172732
 0.1 0.0844866354023613 0.084486635402
 0.1 0.1 0.1
 0 0.118020534183891 0.11802053418
 0 0.138627860638046 0.13862786064
 0 0.160339407433334 0.16033940743
 0 0.182800631892815 0.18280063189
 0 0.20583630408482 0.20583630408
 0 0.229340351264425 0.22934035126
 0 0.253241186053741 0.25324118605
 0 0.277487039887912 0.27748703989
 0 0.302038632831453 0.30203863283
 0 0.326865084182063 0.32686508418
 0 0.35194144408391 0.35194144408
 0 0.377247112240666 0.37724711224
 0 0.402764776516491 0.40276477652
 0 0.428479673159973 0.42847967316
 0 0.4543790549295 0.45437905493
 0 0.480451798591968 0.48045179859
 0 0.506688108767961 0.50668810877
 0 0.53307929015173 0.53307929015
 0 0.559617569370533 0.55961756937
 0 0.586295953604795 0.5862959536
 0 0.613108116913065 0.61310811691
 0 0.640048307764412 0.64004830776
 0 0.66711127303248 0.66711127303
 0 0.694292194928734 0.69429219493
 0 0.721586638222267 0.72158663822
 0 0.748990505722214 0.74899050572
 0 0.776500000459936 0.77650000046
 0 0.804111593350909 0.80411159335
 0 0.831821995374259 0.83182199537
 0 0.859628133504259 0.8596281335
 0 0.887527129779171 0.88752712978
 0 0.915516283010149 0.91551628301
 0 0.943593052724857 0.94359305272
 0 0.971755045013148 0.97175504501
 0 1 1
 0.05 0.118020534183891 0.11802053418
 0.05 0.138627860638046 0.13862786064
 0.05 0.160339407433334 0.16033940743
 0.05 0.182800631892815 0.18280063189
 0.05 0.20583630408482 0.20583630408
 0.05 0.229340351264425 0.22934035126
 0.05 0.253241186053741 0.25324118605
 0.05 0.277487039887912 0.27748703989
 0.05 0.302038632831453 0.30203863283
 0.05 0.326865084182063 0.32686508418
 0.05 0.35194144408391 0.35194144408
 0.05 0.377247112240666 0.37724711224
 0.05 0.402764776516491 0.40276477652
 0.05 0.428479673159973 0.42847967316
 0.05 0.4543790549295 0.45437905493
 0.05 0.480451798591968 0.48045179859
 0.05 0.506688108767961 0.50668810877
 0.05 0.53307929015173 0.53307929015
 0.05 0.559617569370533 0.55961756937
 0.05 0.586295953604795 0.5862959536
 0.05 0.613108116913065 0.61310811691
 0.05 0.640048307764412 0.64004830776
 0.05 0.66711127303248 0.66711127303
 0.05 0.694292194928734 0.69429219493
 0.05 0.721586638222267 0.72158663822
 0.05 0.748990505722214 0.74899050572
 0.05 0.776500000459936 0.77650000046
 0.05 0.804111593350909 0.80411159335
 0.05 0.831821995374259 0.83182199537
 0.05 0.859628133504259 0.8596281335
 0.05 0.887527129779171 0.88752712978
 0.05 0.915516283010149 0.91551628301
 0.05 0.943593052724857 0.94359305272
 0.05 0.971755045013148 0.97175504501
 0.05 1 1
 0.1 0.118020534183891 0.11802053418
 0.1 0.138627860638046 0.13862786064
 0.1 0.160339407433334 0.16033940743
 0.1 0.182800631892815 0.18280063189
 0.1 0.20583630408482 0.20583630408
 0.1 0.229340351264425 0.22934035126
 0.1 0.253241186053741 0.25324118605
 0.1 0.277487039887912 0.27748703989
 0.1 0.302038632831453 0.30203863283
 0.1 0.326865084182063 0.32686508418
 0.1 0.35194144408391 0.35194144408
 0.1 0.377247112240666 0.37724711224
 0.1 0.402764776516491 0.40276477652
 0.1 0.428479673159973 0.42847967316
 0.1 0.4543790549295 0.45437905493
 0.1 0.480451798591968 0.48045179859
 0.1 0.506688108767961 0.50668810877
 0.1 0.53307929015173 0.53307929015
 0.1 0.559617569370533 0.55961756937
 0.1 0.586295953604795 0.5862959536
 0.1 0.613108116913065 0.61310811691
 0.1 0.640048307764412 0.64004830776
 0.1 0.66711127303248 0.66711127303
 0.1 0.694292194928734 0.69429219493
 0.1 0.721586638222267 0.72158663822
 0.1 0.748990505722214 0.74899050572
 0.1 0.776500000459936 0.77650000046
 0.1 0.804111593350909 0.80411159335
 0.1 0.831821995374259 0.83182199537
 0.1 0.859628133504259 0.8596281335
 0.1 0.887527129779171 0.88752712978
 0.1 0.915516283010149 0.91551628301
 0.1 0.943593052724857 0.94359305272
 0.1 0.971755045013148 0.97175504501
 0.1 1 1
 1 12 13
 1 13 2
 2 13 14
 2 14 3
 3 14 15
 3 15 4
 4 15 16
 4 16 5
 5 16 17
 5 17 6
 6 17 18
 6 18 7
 7 18 19
 7 19 8
 8 19 20
 8 20 9
 9 20 21
 9 21 10
 10 21 22
 10 22 11
 12 23 24
 12 24 13
 13 24 25
 13 25 14
 14 25 26
 14 26 15
 15 26 27
 15 27 16
 16 27 28
 16 28 17
 17 28 29
 17 29 18
 18 29 30
 18 30 19
 19 30 31
 19 31 20
 20 31 32
 20 32 21
 21 32 33
 21 33 22
 11 22 69
 11 69 34
 34 69 70
 34 70 35
 35 70 71
 35 71 36
 36 71 72
 36 72 37
 37 72 73
 37 73 38
 38 73 74
 38 74 39
 39 74 75
 39 75 40
 40 75 76
 40 76 41
 41 76 77
 41 77 42
 42 77 78
 42 78 43
 43 78 79
 43 79 44
 44 79 80
 44 80 45
 45 80 81
 45 81 46
 46 81 82
 46 82 47
 47 82 83
 47 83 48
 48 83 84
 48 84 49
 49 84 85
 49 85 50
 50 85 86
 50 86 51
 51 86 87
 51 87 52
 52 87 88
 52 88 53
 53 88 89
 53 89 54
 54 89 90
 54 90 55
 55 90 91
 55 91 56
 56 91 92
 56 92 57
 57 92 93
 57 93 58
 58 93 94
 58 94 59
 59 94 95
 59 95 60
 60 95 96
 60 96 61
 61 96 97
 61 97 62
 62 97 98
 62 98 63
 63 98 99
 63 99 64
 64 99 100
 64 100 65
 65 100 101
 65 101 66
 66 101 102
 66 102 67
 67 102 103
 67 103 68
 22 33 104
 22 104 69
 69 104 105
 69 105 70
 70 105 106
 70 106 71
 71 106 107
 71 107 72
 72 107 108
 72 108 73
 73 108 109
 73 109 74
 74 109 110
 74 110 75
 75 110 111
 75 111 76
 76 111 112
 76 112 77
 77 112 113
 77 113 78
 78 113 114
 78 114 79
 79 114 115
 79 115 80
 80 115 116
 80 116 81
 81 116 117
 81 117 82
 82 117 118
 82 118 83
 83 118 119
 83 119 84
 84 119 120
 84 120 85
 85 120 121
 85 121 86
 86 121 122
 86 122 87
 87 122 123
 87 123 88
 88 123 124
 88 124 89
 89 124 125
 89 125 90
 90 125 126
 90 126 91
 91 126 127
 91 127 92
 92 127 128
 92 128 93
 93 128 129
 93 129 94
 94 129 130
 94 130 95
 95 130 131
 95 131 96
 96 131 132
 96 132 97
 97 132 133
 97 133 98
 98 133 134
 98 134 99
 99 134 135
 99 135 100
 100 135 136
 100 136 101
 101 136 137
 101 137 102
 102 137 138
 102 138 103
ZONE T="Boundary1" SOLUTIONTIME=0 DATAPACKING=POINT VARSHARELIST=([1-3]=1) N=138 E=45 ZONETYPE=FELINESEG
 1 2
 2 3
 3 4
 4 5
 5 6
 6 7
 7 8
 8 9
 9 10
 10 11
 11 34
 34 35
 35 36
 36 37
 37 38
 38 39
 39 40
 40 41
 41 42
 42 43
 43 44
 44 45
 45 46
 46 47
 47 48
 48 49
 49 50
 50 51
 51 52
 52 53
 53 54
 54 55
 55 56
 56 57
 57 58
 58 59
 59 60
 60 61
 61 62
 62 63
 63 64
 64 65
 65 66
 66 67
 67 68
ZONE T="Boundary2" SOLUTIONTIME=0 DATAPACKING=POINT VARSHARELIST=([1-3]=1) N=138 E=45 ZONETYPE=FELINESEG
 23 24
 24 25
 25 26
 26 27
 27 28
 28 29
 29 30
 30 31
 31 32
 32 33
 33 104
 104 105
 105 106
 106 107
 107 108
 108 109
 109 110
 110 111
 111 112
 112 113
 113 114
 114 115
 115 116
 116 117
 117 118
 118 119
 119 120
 120 121
 121 122
 122 123
 123 124
 124 125
 125 126
 126 127
 127 128
 128 129
 129 130
 130 131
 131 132
 132 133
 133 134
 134 135
 135 136
 136 137
 137 138
ZONE T="Boundary3" SOLUTIONTIME=0 DATAPACKING=POINT VARSHARELIST=([1-3]=1) N=138 E=2 ZONETYPE=FELINESEG
 1 12
 12 23
ZONE T="Boundary4" SOLUTIONTIME=0 DATAPACKING=POINT VARSHARELIST=([1-3]=1) N=138 E=2 ZONETYPE=FELINESEG
 103 68
 138 103
