VARIABLES = "x" "y" "wd"
ZONE T="InnerCells" SOLUTIONTIME=0 DATAPACKING=POINT N=22112 E=43590 ZONETYPE=FETRIANGLE
 -4 1 0.00077859281735
 -4 1.00077859281735 0.00077859281735
 -4 1.00440438608745 0.0044043860875
 -4 1.01213706086253 0.012137060863
 -4 1.02491497015521 0.024914970155
 -4 1.04352466165971 0.04352466166
 -4 1.06865758431655 0.068657584317
 -4 1.10093818539722 0.1009381854
 -4 1.14094035479848 0.1409403548
 -4 1.18919805461613 0.18919805462
 -4 1.24621266726745 0.24621266727
 -4 1.31245832899363 0.31245832899
 -4 1.38838594760098 0.3883859476
 -4 1.47442631903732 0.47442631904
 -4 1.57099260300029 0.570992603
 -4 1.67848232839178 0.67848232839
 -4 1.79727904496674 0.79727904497
 -4 1.92775370290669 0.92775370291
 -4 2.07026581925095 1.0702658193
 -4 2.22516447464782 1.2251644746
 -4 2.39278917311074 1.3927891731
 -4 2.57347058978606 1.5734705898
 -4 2.7675312261569 1.7675312262
 -4 2.97528598797773 1.975285988
 -4 3.19704269812975 2.1970426981
 -4 3.43310255421979 2.4331025542
 -4 3.68376053891727 2.6837605389
 -4 3.94930578959498 2.9493057896
 -4 4.23002193271091 3.2300219327
 -4 4.52618738746857 3.5261873875
 -4 4.8380756425685 3.8380756426
 -4 5.1619243574315 3.8380756426
 -4 5.47381261253143 3.5261873875
 -4 5.76997806728909 3.2300219327
 -4 6.05069421040502 2.9493057896
 -4 6.31623946108273 2.6837605389
 -4 6.56689744578021 2.4331025542
 -4 6.80295730187025 2.1970426981
 -4 7.02471401202227 1.975285988
 -4 7.2324687738431 1.7675312262
 -4 7.42652941021394 1.5734705898
 -4 7.60721082688926 1.3927891731
 -4 7.77483552535218 1.2251644746
 -4 7.92973418074905 1.0702658193
 -4 8.07224629709331 0.92775370291
 -4 8.20272095503326 0.79727904497
 -4 8.32151767160823 0.67848232839
 -4 8.42900739699971 0.570992603
 -4 8.52557368096268 0.47442631904
 -4 8.61161405239902 0.3883859476
 -4 8.68754167100637 0.31245832899
 -4 8.75378733273255 0.24621266727
 -4 8.81080194538387 0.18919805462
 -4 8.85905964520152 0.1409403548
 -4 8.89906181460278 0.1009381854
 -4 8.93134241568345 0.068657584317
 -4 8.95647533834029 0.04352466166
 -4 8.97508502984479 0.024914970155
 -4 8.98786293913747 0.012137060863
 -4 8.99559561391255 0.0044043860875
 -4 8.99922140718265 0.00077859281735
 -4 9 0.00077859281735
 -3.78336140600801 1 0.00077859281735
 -3.78336140600801 1.00077859281735 0.00077859281735
 -3.78336140600801 1.00440438608745 0.0044043860875
 -3.78336140600801 1.01213706086253 0.012137060863
 -3.78336140600801 1.02491497015521 0.024914970155
 -3.78336140600801 1.04352466165971 0.04352466166
 -3.78336140600801 1.06865758431655 0.068657584317
 -3.78336140600801 1.10093818539722 0.1009381854
 -3.78336140600801 1.14094035479848 0.1409403548
 -3.78336140600801 1.18919805461613 0.18919805462
 -3.78336140600801 1.24621266726745 0.24621266727
 -3.78336140600801 1.31245832899363 0.31245832899
 -3.78336140600801 1.38838594760098 0.3883859476
 -3.78336140600801 1.47442631903732 0.47442631904
 -3.78336140600801 1.57099260300029 0.570992603
 -3.78336140600801 1.67848232839178 0.67848232839
 -3.78336140600801 1.79727904496674 0.79727904497
 -3.78336140600801 1.92775370290669 0.92775370291
 -3.78336140600801 2.07026581925095 1.0702658193
 -3.78336140600801 2.22516447464782 1.2251644746
 -3.78336140600801 2.39278917311074 1.3927891731
 -3.78336140600801 2.57347058978606 1.5734705898
 -3.78336140600801 2.7675312261569 1.7675312262
 -3.78336140600801 2.97528598797773 1.975285988
 -3.78336140600801 3.19704269812975 2.1970426981
 -3.78336140600801 3.43310255421979 2.4331025542
 -3.78336140600801 3.68376053891727 2.6837605389
 -3.78336140600801 3.94930578959498 2.9493057896
 -3.78336140600801 4.23002193271091 3.2300219327
 -3.78336140600801 4.52618738746857 3.5261873875
 -3.78336140600801 4.8380756425685 3.8380756426
 -3.78336140600801 5.1619243574315 3.8380756426
 -3.78336140600801 5.47381261253143 3.5261873875
 -3.78336140600801 5.76997806728909 3.2300219327
 -3.78336140600801 6.05069421040502 2.9493057896
 -3.78336140600801 6.31623946108273 2.6837605389
 -3.78336140600801 6.56689744578021 2.4331025542
 -3.78336140600801 6.80295730187025 2.1970426981
 -3.78336140600801 7.02471401202227 1.975285988
 -3.78336140600801 7.2324687738431 1.7675312262
 -3.78336140600801 7.42652941021394 1.5734705898
 -3.78336140600801 7.60721082688926 1.3927891731
 -3.78336140600801 7.77483552535218 1.2251644746
 -3.78336140600801 7.92973418074905 1.0702658193
 -3.78336140600801 8.07224629709331 0.92775370291
 -3.78336140600801 8.20272095503326 0.79727904497
 -3.78336140600801 8.32151767160823 0.67848232839
 -3.78336140600801 8.42900739699971 0.570992603
 -3.78336140600801 8.52557368096268 0.47442631904
 -3.78336140600801 8.61161405239902 0.3883859476
 -3.78336140600801 8.68754167100637 0.31245832899
 -3.78336140600801 8.75378733273255 0.24621266727
 -3.78336140600801 8.81080194538387 0.18919805462
 -3.78336140600801 8.85905964520152 0.1409403548
 -3.78336140600801 8.89906181460278 0.1009381854
 -3.78336140600801 8.93134241568345 0.068657584317
 -3.78336140600801 8.95647533834029 0.04352466166
 -3.78336140600801 8.97508502984479 0.024914970155
 -3.78336140600801 8.98786293913747 0.012137060863
 -3.78336140600801 8.99559561391255 0.0044043860875
 -3.78336140600801 8.99922140718265 0.00077859281735
 -3.78336140600801 9 0.00077859281735
 -3.57030435546451 1 0.00077859281735
 -3.57030435546451 1.00077859281735 0.00077859281735
 -3.57030435546451 1.00440438608745 0.0044043860875
 -3.57030435546451 1.01213706086253 0.012137060863
 -3.57030435546451 1.02491497015521 0.024914970155
 -3.57030435546451 1.04352466165971 0.04352466166
 -3.57030435546451 1.06865758431655 0.068657584317
 -3.57030435546451 1.10093818539722 0.1009381854
 -3.57030435546451 1.14094035479848 0.1409403548
 -3.57030435546451 1.18919805461613 0.18919805462
 -3.57030435546451 1.24621266726745 0.24621266727
 -3.57030435546451 1.31245832899363 0.31245832899
 -3.57030435546451 1.38838594760098 0.3883859476
 -3.57030435546451 1.47442631903732 0.47442631904
 -3.57030435546451 1.57099260300029 0.570992603
 -3.57030435546451 1.67848232839178 0.67848232839
 -3.57030435546451 1.79727904496674 0.79727904497
 -3.57030435546451 1.92775370290669 0.92775370291
 -3.57030435546451 2.07026581925095 1.0702658193
 -3.57030435546451 2.22516447464782 1.2251644746
 -3.57030435546451 2.39278917311074 1.3927891731
 -3.57030435546451 2.57347058978606 1.5734705898
 -3.57030435546451 2.7675312261569 1.7675312262
 -3.57030435546451 2.97528598797773 1.975285988
 -3.57030435546451 3.19704269812975 2.1970426981
 -3.57030435546451 3.43310255421979 2.4331025542
 -3.57030435546451 3.68376053891727 2.6837605389
 -3.57030435546451 3.94930578959498 2.9493057896
 -3.57030435546451 4.23002193271091 3.2300219327
 -3.57030435546451 4.52618738746857 3.5261873875
 -3.57030435546451 4.8380756425685 3.8380756426
 -3.57030435546451 5.1619243574315 3.8380756426
 -3.57030435546451 5.47381261253143 3.5261873875
 -3.57030435546451 5.76997806728909 3.2300219327
 -3.57030435546451 6.05069421040502 2.9493057896
 -3.57030435546451 6.31623946108273 2.6837605389
 -3.57030435546451 6.56689744578021 2.4331025542
 -3.57030435546451 6.80295730187025 2.1970426981
 -3.57030435546451 7.02471401202227 1.975285988
 -3.57030435546451 7.2324687738431 1.7675312262
 -3.57030435546451 7.42652941021394 1.5734705898
 -3.57030435546451 7.60721082688926 1.3927891731
 -3.57030435546451 7.77483552535218 1.2251644746
 -3.57030435546451 7.92973418074905 1.0702658193
 -3.57030435546451 8.07224629709331 0.92775370291
 -3.57030435546451 8.20272095503326 0.79727904497
 -3.57030435546451 8.32151767160823 0.67848232839
 -3.57030435546451 8.42900739699971 0.570992603
 -3.57030435546451 8.52557368096268 0.47442631904
 -3.57030435546451 8.61161405239902 0.3883859476
 -3.57030435546451 8.68754167100637 0.31245832899
 -3.57030435546451 8.75378733273255 0.24621266727
 -3.57030435546451 8.81080194538387 0.18919805462
 -3.57030435546451 8.85905964520152 0.1409403548
 -3.57030435546451 8.89906181460278 0.1009381854
 -3.57030435546451 8.93134241568345 0.068657584317
 -3.57030435546451 8.95647533834029 0.04352466166
 -3.57030435546451 8.97508502984479 0.024914970155
 -3.57030435546451 8.98786293913747 0.012137060863
 -3.57030435546451 8.99559561391255 0.0044043860875
 -3.57030435546451 8.99922140718265 0.00077859281735
 -3.57030435546451 9 0.00077859281735
 -3.3609215289399 1 0.00077859281735
 -3.3609215289399 1.00077859281735 0.00077859281735
 -3.3609215289399 1.00440438608745 0.0044043860875
 -3.3609215289399 1.01213706086253 0.012137060863
 -3.3609215289399 1.02491497015521 0.024914970155
 -3.3609215289399 1.04352466165971 0.04352466166
 -3.3609215289399 1.06865758431655 0.068657584317
 -3.3609215289399 1.10093818539722 0.1009381854
 -3.3609215289399 1.14094035479848 0.1409403548
 -3.3609215289399 1.18919805461613 0.18919805462
 -3.3609215289399 1.24621266726745 0.24621266727
 -3.3609215289399 1.31245832899363 0.31245832899
 -3.3609215289399 1.38838594760098 0.3883859476
 -3.3609215289399 1.47442631903732 0.47442631904
 -3.3609215289399 1.57099260300029 0.570992603
 -3.3609215289399 1.67848232839178 0.67848232839
 -3.3609215289399 1.79727904496674 0.79727904497
 -3.3609215289399 1.92775370290669 0.92775370291
 -3.3609215289399 2.07026581925095 1.0702658193
 -3.3609215289399 2.22516447464782 1.2251644746
 -3.3609215289399 2.39278917311074 1.3927891731
 -3.3609215289399 2.57347058978606 1.5734705898
 -3.3609215289399 2.7675312261569 1.7675312262
 -3.3609215289399 2.97528598797773 1.975285988
 -3.3609215289399 3.19704269812975 2.1970426981
 -3.3609215289399 3.43310255421979 2.4331025542
 -3.3609215289399 3.68376053891727 2.6837605389
 -3.3609215289399 3.94930578959498 2.9493057896
 -3.3609215289399 4.23002193271091 3.2300219327
 -3.3609215289399 4.52618738746857 3.5261873875
 -3.3609215289399 4.8380756425685 3.8380756426
 -3.3609215289399 5.1619243574315 3.8380756426
 -3.3609215289399 5.47381261253143 3.5261873875
 -3.3609215289399 5.76997806728909 3.2300219327
 -3.3609215289399 6.05069421040502 2.9493057896
 -3.3609215289399 6.31623946108273 2.6837605389
 -3.3609215289399 6.56689744578021 2.4331025542
 -3.3609215289399 6.80295730187025 2.1970426981
 -3.3609215289399 7.02471401202227 1.975285988
 -3.3609215289399 7.2324687738431 1.7675312262
 -3.3609215289399 7.42652941021394 1.5734705898
 -3.3609215289399 7.60721082688926 1.3927891731
 -3.3609215289399 7.77483552535218 1.2251644746
 -3.3609215289399 7.92973418074905 1.0702658193
 -3.3609215289399 8.07224629709331 0.92775370291
 -3.3609215289399 8.20272095503326 0.79727904497
 -3.3609215289399 8.32151767160823 0.67848232839
 -3.3609215289399 8.42900739699971 0.570992603
 -3.3609215289399 8.52557368096268 0.47442631904
 -3.3609215289399 8.61161405239902 0.3883859476
 -3.3609215289399 8.68754167100637 0.31245832899
 -3.3609215289399 8.75378733273255 0.24621266727
 -3.3609215289399 8.81080194538387 0.18919805462
 -3.3609215289399 8.85905964520152 0.1409403548
 -3.3609215289399 8.89906181460278 0.1009381854
 -3.3609215289399 8.93134241568345 0.068657584317
 -3.3609215289399 8.95647533834029 0.04352466166
 -3.3609215289399 8.97508502984479 0.024914970155
 -3.3609215289399 8.98786293913747 0.012137060863
 -3.3609215289399 8.99559561391255 0.0044043860875
 -3.3609215289399 8.99922140718265 0.00077859281735
 -3.3609215289399 9 0.00077859281735
 -3.15531229350689 1 0.00077859281735
 -3.15531229350689 1.00077859281735 0.00077859281735
 -3.15531229350689 1.00440438608745 0.0044043860875
 -3.15531229350689 1.01213706086253 0.012137060863
 -3.15531229350689 1.02491497015521 0.024914970155
 -3.15531229350689 1.04352466165971 0.04352466166
 -3.15531229350689 1.06865758431655 0.068657584317
 -3.15531229350689 1.10093818539722 0.1009381854
 -3.15531229350689 1.14094035479848 0.1409403548
 -3.15531229350689 1.18919805461613 0.18919805462
 -3.15531229350689 1.24621266726745 0.24621266727
 -3.15531229350689 1.31245832899363 0.31245832899
 -3.15531229350689 1.38838594760098 0.3883859476
 -3.15531229350689 1.47442631903732 0.47442631904
 -3.15531229350689 1.57099260300029 0.570992603
 -3.15531229350689 1.67848232839178 0.67848232839
 -3.15531229350689 1.79727904496674 0.79727904497
 -3.15531229350689 1.92775370290669 0.92775370291
 -3.15531229350689 2.07026581925095 1.0702658193
 -3.15531229350689 2.22516447464782 1.2251644746
 -3.15531229350689 2.39278917311074 1.3927891731
 -3.15531229350689 2.57347058978606 1.5734705898
 -3.15531229350689 2.7675312261569 1.7675312262
 -3.15531229350689 2.97528598797773 1.975285988
 -3.15531229350689 3.19704269812975 2.1970426981
 -3.15531229350689 3.43310255421979 2.4331025542
 -3.15531229350689 3.68376053891727 2.6837605389
 -3.15531229350689 3.94930578959498 2.9493057896
 -3.15531229350689 4.23002193271091 3.2300219327
 -3.15531229350689 4.52618738746857 3.5261873875
 -3.15531229350689 4.8380756425685 3.8380756426
 -3.15531229350689 5.1619243574315 3.8380756426
 -3.15531229350689 5.47381261253143 3.5261873875
 -3.15531229350689 5.76997806728909 3.2300219327
 -3.15531229350689 6.05069421040502 2.9493057896
 -3.15531229350689 6.31623946108273 2.6837605389
 -3.15531229350689 6.56689744578021 2.4331025542
 -3.15531229350689 6.80295730187025 2.1970426981
 -3.15531229350689 7.02471401202227 1.975285988
 -3.15531229350689 7.2324687738431 1.7675312262
 -3.15531229350689 7.42652941021394 1.5734705898
 -3.15531229350689 7.60721082688926 1.3927891731
 -3.15531229350689 7.77483552535218 1.2251644746
 -3.15531229350689 7.92973418074905 1.0702658193
 -3.15531229350689 8.07224629709331 0.92775370291
 -3.15531229350689 8.20272095503326 0.79727904497
 -3.15531229350689 8.32151767160823 0.67848232839
 -3.15531229350689 8.42900739699971 0.570992603
 -3.15531229350689 8.52557368096268 0.47442631904
 -3.15531229350689 8.61161405239902 0.3883859476
 -3.15531229350689 8.68754167100637 0.31245832899
 -3.15531229350689 8.75378733273255 0.24621266727
 -3.15531229350689 8.81080194538387 0.18919805462
 -3.15531229350689 8.85905964520152 0.1409403548
 -3.15531229350689 8.89906181460278 0.1009381854
 -3.15531229350689 8.93134241568345 0.068657584317
 -3.15531229350689 8.95647533834029 0.04352466166
 -3.15531229350689 8.97508502984479 0.024914970155
 -3.15531229350689 8.98786293913747 0.012137060863
 -3.15531229350689 8.99559561391255 0.0044043860875
 -3.15531229350689 8.99922140718265 0.00077859281735
 -3.15531229350689 9 0.00077859281735
 -2.95358352402652 1 0.00077859281735
 -2.95358352402652 1.00077859281735 0.00077859281735
 -2.95358352402652 1.00440438608745 0.0044043860875
 -2.95358352402652 1.01213706086253 0.012137060863
 -2.95358352402652 1.02491497015521 0.024914970155
 -2.95358352402652 1.04352466165971 0.04352466166
 -2.95358352402652 1.06865758431655 0.068657584317
 -2.95358352402652 1.10093818539722 0.1009381854
 -2.95358352402652 1.14094035479848 0.1409403548
 -2.95358352402652 1.18919805461613 0.18919805462
 -2.95358352402652 1.24621266726745 0.24621266727
 -2.95358352402652 1.31245832899363 0.31245832899
 -2.95358352402652 1.38838594760098 0.3883859476
 -2.95358352402652 1.47442631903732 0.47442631904
 -2.95358352402652 1.57099260300029 0.570992603
 -2.95358352402652 1.67848232839178 0.67848232839
 -2.95358352402652 1.79727904496674 0.79727904497
 -2.95358352402652 1.92775370290669 0.92775370291
 -2.95358352402652 2.07026581925095 1.0702658193
 -2.95358352402652 2.22516447464782 1.2251644746
 -2.95358352402652 2.39278917311074 1.3927891731
 -2.95358352402652 2.57347058978606 1.5734705898
 -2.95358352402652 2.7675312261569 1.7675312262
 -2.95358352402652 2.97528598797773 1.975285988
 -2.95358352402652 3.19704269812975 2.1970426981
 -2.95358352402652 3.43310255421979 2.4331025542
 -2.95358352402652 3.68376053891727 2.6837605389
 -2.95358352402652 3.94930578959498 2.9493057896
 -2.95358352402652 4.23002193271091 3.2300219327
 -2.95358352402652 4.52618738746857 3.5261873875
 -2.95358352402652 4.8380756425685 3.8380756426
 -2.95358352402652 5.1619243574315 3.8380756426
 -2.95358352402652 5.47381261253143 3.5261873875
 -2.95358352402652 5.76997806728909 3.2300219327
 -2.95358352402652 6.05069421040502 2.9493057896
 -2.95358352402652 6.31623946108273 2.6837605389
 -2.95358352402652 6.56689744578021 2.4331025542
 -2.95358352402652 6.80295730187025 2.1970426981
 -2.95358352402652 7.02471401202227 1.975285988
 -2.95358352402652 7.2324687738431 1.7675312262
 -2.95358352402652 7.42652941021394 1.5734705898
 -2.95358352402652 7.60721082688926 1.3927891731
 -2.95358352402652 7.77483552535218 1.2251644746
 -2.95358352402652 7.92973418074905 1.0702658193
 -2.95358352402652 8.07224629709331 0.92775370291
 -2.95358352402652 8.20272095503326 0.79727904497
 -2.95358352402652 8.32151767160823 0.67848232839
 -2.95358352402652 8.42900739699971 0.570992603
 -2.95358352402652 8.52557368096268 0.47442631904
 -2.95358352402652 8.61161405239902 0.3883859476
 -2.95358352402652 8.68754167100637 0.31245832899
 -2.95358352402652 8.75378733273255 0.24621266727
 -2.95358352402652 8.81080194538387 0.18919805462
 -2.95358352402652 8.85905964520152 0.1409403548
 -2.95358352402652 8.89906181460278 0.1009381854
 -2.95358352402652 8.93134241568345 0.068657584317
 -2.95358352402652 8.95647533834029 0.04352466166
 -2.95358352402652 8.97508502984479 0.024914970155
 -2.95358352402652 8.98786293913747 0.012137060863
 -2.95358352402652 8.99559561391255 0.0044043860875
 -2.95358352402652 8.99922140718265 0.00077859281735
 -2.95358352402652 9 0.00077859281735
 -2.75585057110711 1 0.00077859281735
 -2.75585057110711 1.00077859281735 0.00077859281735
 -2.75585057110711 1.00440438608745 0.0044043860875
 -2.75585057110711 1.01213706086253 0.012137060863
 -2.75585057110711 1.02491497015521 0.024914970155
 -2.75585057110711 1.04352466165971 0.04352466166
 -2.75585057110711 1.06865758431655 0.068657584317
 -2.75585057110711 1.10093818539722 0.1009381854
 -2.75585057110711 1.14094035479848 0.1409403548
 -2.75585057110711 1.18919805461613 0.18919805462
 -2.75585057110711 1.24621266726745 0.24621266727
 -2.75585057110711 1.31245832899363 0.31245832899
 -2.75585057110711 1.38838594760098 0.3883859476
 -2.75585057110711 1.47442631903732 0.47442631904
 -2.75585057110711 1.57099260300029 0.570992603
 -2.75585057110711 1.67848232839178 0.67848232839
 -2.75585057110711 1.79727904496674 0.79727904497
 -2.75585057110711 1.92775370290669 0.92775370291
 -2.75585057110711 2.07026581925095 1.0702658193
 -2.75585057110711 2.22516447464782 1.2251644746
 -2.75585057110711 2.39278917311074 1.3927891731
 -2.75585057110711 2.57347058978606 1.5734705898
 -2.75585057110711 2.7675312261569 1.7675312262
 -2.75585057110711 2.97528598797773 1.975285988
 -2.75585057110711 3.19704269812975 2.1970426981
 -2.75585057110711 3.43310255421979 2.4331025542
 -2.75585057110711 3.68376053891727 2.6837605389
 -2.75585057110711 3.94930578959498 2.9493057896
 -2.75585057110711 4.23002193271091 3.2300219327
 -2.75585057110711 4.52618738746857 3.5261873875
 -2.75585057110711 4.8380756425685 3.8380756426
 -2.75585057110711 5.1619243574315 3.8380756426
 -2.75585057110711 5.47381261253143 3.5261873875
 -2.75585057110711 5.76997806728909 3.2300219327
 -2.75585057110711 6.05069421040502 2.9493057896
 -2.75585057110711 6.31623946108273 2.6837605389
 -2.75585057110711 6.56689744578021 2.4331025542
 -2.75585057110711 6.80295730187025 2.1970426981
 -2.75585057110711 7.02471401202227 1.975285988
 -2.75585057110711 7.2324687738431 1.7675312262
 -2.75585057110711 7.42652941021394 1.5734705898
 -2.75585057110711 7.60721082688926 1.3927891731
 -2.75585057110711 7.77483552535218 1.2251644746
 -2.75585057110711 7.92973418074905 1.0702658193
 -2.75585057110711 8.07224629709331 0.92775370291
 -2.75585057110711 8.20272095503326 0.79727904497
 -2.75585057110711 8.32151767160823 0.67848232839
 -2.75585057110711 8.42900739699971 0.570992603
 -2.75585057110711 8.52557368096268 0.47442631904
 -2.75585057110711 8.61161405239902 0.3883859476
 -2.75585057110711 8.68754167100637 0.31245832899
 -2.75585057110711 8.75378733273255 0.24621266727
 -2.75585057110711 8.81080194538387 0.18919805462
 -2.75585057110711 8.85905964520152 0.1409403548
 -2.75585057110711 8.89906181460278 0.1009381854
 -2.75585057110711 8.93134241568345 0.068657584317
 -2.75585057110711 8.95647533834029 0.04352466166
 -2.75585057110711 8.97508502984479 0.024914970155
 -2.75585057110711 8.98786293913747 0.012137060863
 -2.75585057110711 8.99559561391255 0.0044043860875
 -2.75585057110711 8.99922140718265 0.00077859281735
 -2.75585057110711 9 0.00077859281735
 -2.56223841097262 1 0.00077859281735
 -2.56223841097262 1.00077859281735 0.00077859281735
 -2.56223841097262 1.00440438608745 0.0044043860875
 -2.56223841097262 1.01213706086253 0.012137060863
 -2.56223841097262 1.02491497015521 0.024914970155
 -2.56223841097262 1.04352466165971 0.04352466166
 -2.56223841097262 1.06865758431655 0.068657584317
 -2.56223841097262 1.10093818539722 0.1009381854
 -2.56223841097262 1.14094035479848 0.1409403548
 -2.56223841097262 1.18919805461613 0.18919805462
 -2.56223841097262 1.24621266726745 0.24621266727
 -2.56223841097262 1.31245832899363 0.31245832899
 -2.56223841097262 1.38838594760098 0.3883859476
 -2.56223841097262 1.47442631903732 0.47442631904
 -2.56223841097262 1.57099260300029 0.570992603
 -2.56223841097262 1.67848232839178 0.67848232839
 -2.56223841097262 1.79727904496674 0.79727904497
 -2.56223841097262 1.92775370290669 0.92775370291
 -2.56223841097262 2.07026581925095 1.0702658193
 -2.56223841097262 2.22516447464782 1.2251644746
 -2.56223841097262 2.39278917311074 1.3927891731
 -2.56223841097262 2.57347058978606 1.5734705898
 -2.56223841097262 2.7675312261569 1.7675312262
 -2.56223841097262 2.97528598797773 1.975285988
 -2.56223841097262 3.19704269812975 2.1970426981
 -2.56223841097262 3.43310255421979 2.4331025542
 -2.56223841097262 3.68376053891727 2.6837605389
 -2.56223841097262 3.94930578959498 2.9493057896
 -2.56223841097262 4.23002193271091 3.2300219327
 -2.56223841097262 4.52618738746857 3.5261873875
 -2.56223841097262 4.8380756425685 3.8380756426
 -2.56223841097262 5.1619243574315 3.8380756426
 -2.56223841097262 5.47381261253143 3.5261873875
 -2.56223841097262 5.76997806728909 3.2300219327
 -2.56223841097262 6.05069421040502 2.9493057896
 -2.56223841097262 6.31623946108273 2.6837605389
 -2.56223841097262 6.56689744578021 2.4331025542
 -2.56223841097262 6.80295730187025 2.1970426981
 -2.56223841097262 7.02471401202227 1.975285988
 -2.56223841097262 7.2324687738431 1.7675312262
 -2.56223841097262 7.42652941021394 1.5734705898
 -2.56223841097262 7.60721082688926 1.3927891731
 -2.56223841097262 7.77483552535218 1.2251644746
 -2.56223841097262 7.92973418074905 1.0702658193
 -2.56223841097262 8.07224629709331 0.92775370291
 -2.56223841097262 8.20272095503326 0.79727904497
 -2.56223841097262 8.32151767160823 0.67848232839
 -2.56223841097262 8.42900739699971 0.570992603
 -2.56223841097262 8.52557368096268 0.47442631904
 -2.56223841097262 8.61161405239902 0.3883859476
 -2.56223841097262 8.68754167100637 0.31245832899
 -2.56223841097262 8.75378733273255 0.24621266727
 -2.56223841097262 8.81080194538387 0.18919805462
 -2.56223841097262 8.85905964520152 0.1409403548
 -2.56223841097262 8.89906181460278 0.1009381854
 -2.56223841097262 8.93134241568345 0.068657584317
 -2.56223841097262 8.95647533834029 0.04352466166
 -2.56223841097262 8.97508502984479 0.024914970155
 -2.56223841097262 8.98786293913747 0.012137060863
 -2.56223841097262 8.99559561391255 0.0044043860875
 -2.56223841097262 8.99922140718265 0.00077859281735
 -2.56223841097262 9 0.00077859281735
 -2.37288302335701 1 0.00077859281735
 -2.37288302335701 1.00077859281735 0.00077859281735
 -2.37288302335701 1.00440438608745 0.0044043860875
 -2.37288302335701 1.01213706086253 0.012137060863
 -2.37288302335701 1.02491497015521 0.024914970155
 -2.37288302335701 1.04352466165971 0.04352466166
 -2.37288302335701 1.06865758431655 0.068657584317
 -2.37288302335701 1.10093818539722 0.1009381854
 -2.37288302335701 1.14094035479848 0.1409403548
 -2.37288302335701 1.18919805461613 0.18919805462
 -2.37288302335701 1.24621266726745 0.24621266727
 -2.37288302335701 1.31245832899363 0.31245832899
 -2.37288302335701 1.38838594760098 0.3883859476
 -2.37288302335701 1.47442631903732 0.47442631904
 -2.37288302335701 1.57099260300029 0.570992603
 -2.37288302335701 1.67848232839178 0.67848232839
 -2.37288302335701 1.79727904496674 0.79727904497
 -2.37288302335701 1.92775370290669 0.92775370291
 -2.37288302335701 2.07026581925095 1.0702658193
 -2.37288302335701 2.22516447464782 1.2251644746
 -2.37288302335701 2.39278917311074 1.3927891731
 -2.37288302335701 2.57347058978606 1.5734705898
 -2.37288302335701 2.7675312261569 1.7675312262
 -2.37288302335701 2.97528598797773 1.975285988
 -2.37288302335701 3.19704269812975 2.1970426981
 -2.37288302335701 3.43310255421979 2.4331025542
 -2.37288302335701 3.68376053891727 2.6837605389
 -2.37288302335701 3.94930578959498 2.9493057896
 -2.37288302335701 4.23002193271091 3.2300219327
 -2.37288302335701 4.52618738746857 3.5261873875
 -2.37288302335701 4.8380756425685 3.8380756426
 -2.37288302335701 5.1619243574315 3.8380756426
 -2.37288302335701 5.47381261253143 3.5261873875
 -2.37288302335701 5.76997806728909 3.2300219327
 -2.37288302335701 6.05069421040502 2.9493057896
 -2.37288302335701 6.31623946108273 2.6837605389
 -2.37288302335701 6.56689744578021 2.4331025542
 -2.37288302335701 6.80295730187025 2.1970426981
 -2.37288302335701 7.02471401202227 1.975285988
 -2.37288302335701 7.2324687738431 1.7675312262
 -2.37288302335701 7.42652941021394 1.5734705898
 -2.37288302335701 7.60721082688926 1.3927891731
 -2.37288302335701 7.77483552535218 1.2251644746
 -2.37288302335701 7.92973418074905 1.0702658193
 -2.37288302335701 8.07224629709331 0.92775370291
 -2.37288302335701 8.20272095503326 0.79727904497
 -2.37288302335701 8.32151767160823 0.67848232839
 -2.37288302335701 8.42900739699971 0.570992603
 -2.37288302335701 8.52557368096268 0.47442631904
 -2.37288302335701 8.61161405239902 0.3883859476
 -2.37288302335701 8.68754167100637 0.31245832899
 -2.37288302335701 8.75378733273255 0.24621266727
 -2.37288302335701 8.81080194538387 0.18919805462
 -2.37288302335701 8.85905964520152 0.1409403548
 -2.37288302335701 8.89906181460278 0.1009381854
 -2.37288302335701 8.93134241568345 0.068657584317
 -2.37288302335701 8.95647533834029 0.04352466166
 -2.37288302335701 8.97508502984479 0.024914970155
 -2.37288302335701 8.98786293913747 0.012137060863
 -2.37288302335701 8.99559561391255 0.0044043860875
 -2.37288302335701 8.99922140718265 0.00077859281735
 -2.37288302335701 9 0.00077859281735
 -2.18793305861425 1 0.00077859281735
 -2.18793305861425 1.00077859281735 0.00077859281735
 -2.18793305861425 1.00440438608745 0.0044043860875
 -2.18793305861425 1.01213706086253 0.012137060863
 -2.18793305861425 1.02491497015521 0.024914970155
 -2.18793305861425 1.04352466165971 0.04352466166
 -2.18793305861425 1.06865758431655 0.068657584317
 -2.18793305861425 1.10093818539722 0.1009381854
 -2.18793305861425 1.14094035479848 0.1409403548
 -2.18793305861425 1.18919805461613 0.18919805462
 -2.18793305861425 1.24621266726745 0.24621266727
 -2.18793305861425 1.31245832899363 0.31245832899
 -2.18793305861425 1.38838594760098 0.3883859476
 -2.18793305861425 1.47442631903732 0.47442631904
 -2.18793305861425 1.57099260300029 0.570992603
 -2.18793305861425 1.67848232839178 0.67848232839
 -2.18793305861425 1.79727904496674 0.79727904497
 -2.18793305861425 1.92775370290669 0.92775370291
 -2.18793305861425 2.07026581925095 1.0702658193
 -2.18793305861425 2.22516447464782 1.2251644746
 -2.18793305861425 2.39278917311074 1.3927891731
 -2.18793305861425 2.57347058978606 1.5734705898
 -2.18793305861425 2.7675312261569 1.7675312262
 -2.18793305861425 2.97528598797773 1.975285988
 -2.18793305861425 3.19704269812975 2.1970426981
 -2.18793305861425 3.43310255421979 2.4331025542
 -2.18793305861425 3.68376053891727 2.6837605389
 -2.18793305861425 3.94930578959498 2.9493057896
 -2.18793305861425 4.23002193271091 3.2300219327
 -2.18793305861425 4.52618738746857 3.5261873875
 -2.18793305861425 4.8380756425685 3.8380756426
 -2.18793305861425 5.1619243574315 3.8380756426
 -2.18793305861425 5.47381261253143 3.5261873875
 -2.18793305861425 5.76997806728909 3.2300219327
 -2.18793305861425 6.05069421040502 2.9493057896
 -2.18793305861425 6.31623946108273 2.6837605389
 -2.18793305861425 6.56689744578021 2.4331025542
 -2.18793305861425 6.80295730187025 2.1970426981
 -2.18793305861425 7.02471401202227 1.975285988
 -2.18793305861425 7.2324687738431 1.7675312262
 -2.18793305861425 7.42652941021394 1.5734705898
 -2.18793305861425 7.60721082688926 1.3927891731
 -2.18793305861425 7.77483552535218 1.2251644746
 -2.18793305861425 7.92973418074905 1.0702658193
 -2.18793305861425 8.07224629709331 0.92775370291
 -2.18793305861425 8.20272095503326 0.79727904497
 -2.18793305861425 8.32151767160823 0.67848232839
 -2.18793305861425 8.42900739699971 0.570992603
 -2.18793305861425 8.52557368096268 0.47442631904
 -2.18793305861425 8.61161405239902 0.3883859476
 -2.18793305861425 8.68754167100637 0.31245832899
 -2.18793305861425 8.75378733273255 0.24621266727
 -2.18793305861425 8.81080194538387 0.18919805462
 -2.18793305861425 8.85905964520152 0.1409403548
 -2.18793305861425 8.89906181460278 0.1009381854
 -2.18793305861425 8.93134241568345 0.068657584317
 -2.18793305861425 8.95647533834029 0.04352466166
 -2.18793305861425 8.97508502984479 0.024914970155
 -2.18793305861425 8.98786293913747 0.012137060863
 -2.18793305861425 8.99559561391255 0.0044043860875
 -2.18793305861425 8.99922140718265 0.00077859281735
 -2.18793305861425 9 0.00077859281735
 -2.00755187647786 1 0.00077859281735
 -2.00755187647786 1.00077859281735 0.00077859281735
 -2.00755187647786 1.00440438608745 0.0044043860875
 -2.00755187647786 1.01213706086253 0.012137060863
 -2.00755187647786 1.02491497015521 0.024914970155
 -2.00755187647786 1.04352466165971 0.04352466166
 -2.00755187647786 1.06865758431655 0.068657584317