VARIABLES = "x" "y" "wd"
ZONE T="InnerCells" SOLUTIONTIME=0 DATAPACKING=POINT N=543 E=720 ZONETYPE=FETRIANGLE
 0 0 0.0025
 0 0.0025 0.0025
 0 0.005 0.005
 0 0.0075 0.0075
 0 0.01 0.01
 0 0.0125 0.0125
 0 0.015 0.015
 0 0.0175 0.0175
 0 0.02 0.02
 0 0.0225 0.0225
 0 0.025 0.025
 0 0.0275 0.0275
 0 0.03 0.03
 0 0.0325 0.0325
 0 0.035 0.035
 0 0.0375 0.0375
 0 0.04 0.04
 0 0.0425 0.0425
 0 0.045 0.045
 0 0.0475 0.0475
 0 0.05 0.05
 0 0.0525 0.0525
 0 0.055 0.055
 0 0.0575 0.0575
 0 0.06 0.06
 0 0.0625 0.0625
 0 0.065 0.065
 0 0.0675 0.0675
 0 0.07 0.07
 0 0.0725 0.0725
 0 0.075 0.075
 0 0.0775 0.0775
 0 0.08 0.08
 0 0.0825 0.0825
 0 0.085 0.085
 0 0.0875 0.0875
 0 0.09 0.09
 0 0.0925 0.0925
 0 0.095 0.095
 0 0.0975 0.0975
 0 0.1 0.1
 0.05 0 0.0025
 0.05 0.0025 0.0025
 0.05 0.005 0.005
 0.05 0.0075 0.0075
 0.05 0.01 0.01
 0.05 0.0125 0.0125
 0.05 0.015 0.015
 0.05 0.0175 0.0175
 0.05 0.02 0.02
 0.05 0.0225 0.0225
 0.05 0.025 0.025
 0.05 0.0275 0.0275
 0.05 0.03 0.03
 0.05 0.0325 0.0325
 0.05 0.035 0.035
 0.05 0.0375 0.0375
 0.05 0.04 0.04
 0.05 0.0425 0.0425
 0.05 0.045 0.045
 0.05 0.0475 0.0475
 0.05 0.05 0.05
 0.05 0.0525 0.0525
 0.05 0.055 0.055
 0.05 0.0575 0.0575
 0.05 0.06 0.06
 0.05 0.0625 0.0625
 0.05 0.065 0.065
 0.05 0.0675 0.0675
 0.05 0.07 0.07
 0.05 0.0725 0.0725
 0.05 0.075 0.075
 0.05 0.0775 0.0775
 0.05 0.08 0.08
 0.05 0.0825 0.0825
 0.05 0.085 0.085
 0.05 0.0875 0.0875
 0.05 0.09 0.09
 0.05 0.0925 0.0925
 0.05 0.095 0.095
 0.05 0.0975 0.0975
 0.05 0.1 0.1
 0.1 0 0.0025
 0.1 0.0025 0.0025
 0.1 0.005 0.005
 0.1 0.0075 0.0075
 0.1 0.01 0.01
 0.1 0.0125 0.0125
 0.1 0.015 0.015
 0.1 0.0175 0.0175
 0.1 0.02 0.02
 0.1 0.0225 0.0225
 0.1 0.025 0.025
 0.1 0.0275 0.0275
 0.1 0.03 0.03
 0.1 0.0325 0.0325
 0.1 0.035 0.035
 0.1 0.0375 0.0375
 0.1 0.04 0.04
 0.1 0.0425 0.0425
 0.1 0.045 0.045
 0.1 0.0475 0.0475
 0.1 0.05 0.05
 0.1 0.0525 0.0525
 0.1 0.055 0.055
 0.1 0.0575 0.0575
 0.1 0.06 0.06
 0.1 0.0625 0.0625
 0.1 0.065 0.065
 0.1 0.0675 0.0675
 0.1 0.07 0.07
 0.1 0.0725 0.0725
 0.1 0.075 0.075
 0.1 0.0775 0.0775
 0.1 0.08 0.08
 0.1 0.0825 0.0825
 0.1 0.085 0.085
 0.1 0.0875 0.0875
 0.1 0.09 0.09
 0.1 0.0925 0.0925
 0.1 0.095 0.095
 0.1 0.0975 0.0975
 0.1 0.1 0.1
 0 0.102392703399492 0.1023927034
 0 0.105496988917985 0.10549698892
 0 0.108941993962212 0.10894199396
 0 0.112628764255053 0.11262876426
 0 0.116506419256793 0.11650641926
 0 0.120543307509574 0.12054330751
 0 0.124717612224388 0.12471761222
 0 0.12901328145085 0.12901328145
 0 0.133417955621749 0.13341795562
 0 0.137921793294339 0.13792179329
 0 0.142516752874886 0.14251675287
 0 0.147196127084891 0.14719612708
 0 0.151954227218888 0.15195422722
 0 0.156786161003217 0.156786161
 0 0.161687671511358 0.16168767151
 0 0.166655017351315 0.16665501735
 0 0.171684881602455 0.1716848816
 0 0.176774301300135 0.1767743013
 0 0.181920611936631 0.18192061194
 0 0.18712140315149 0.18712140315
 0 0.192374482904015 0.1923744829
 0 0.197677848174394 0.19767784817
 0 0.203029660758947 0.20302966076
 0 0.208428227089291 0.20842822709
 0 0.21387198126556 0.21387198127
 0 0.219359470682958 0.21935947068
 0 0.224889343770135 0.22488934377
 0 0.230460339461985 0.23046033946
 0 0.236071278107995 0.23607127811
 0 0.241721053577388 0.24172105358
 0 0.247408626368693 0.24740862637
 0 0.253133017567508 0.25313301757
 0 0.258893303524697 0.25889330352
 0 0.264688611149793 0.26468861115
 0 0.27051811373242 0.27051811373
 0 0.276381027219024 0.27638102722
 0 0.28227660688401 0.28227660688
 0 0.288204144343917 0.28820414434
 0 0.294162964871151 0.29416296487
 0 0.300152424970301 0.30015242497
 0 0.306171910185411 0.30617191019
 0 0.312220833111088 0.31222083311
 0 0.318298631584086 0.31829863158
 0 0.324404767035152 0.32440476704
 0 0.330538722983611 0.33053872298
 0 0.336700003659411 0.33670000366
 0 0.342888132739295 0.34288813274
 0 0.349102652185426 0.34910265219
 0 0.355343121176169 0.35534312118
 0 0.361609115120005 0.36160911512
 0 0.367900224744558 0.36790022474
 0 0.374216055253661 0.37421605525
 0 0.380556225546154 0.38055622555
 0 0.386920367490826 0.38692036749
 0 0.393308125252482 0.39330812525
 0 0.399719154664674 0.39971915466
 0 0.406153122645092 0.40615312265
 0 0.412609706649996 0.41260970665
 0 0.419088594164472 0.41908859416
 0 0.425589482225585 0.42558948223
 0 0.432112076975784 0.43211207698
 0 0.438656093244181 0.43865609324
 0 0.44522125415355 0.44522125415
 0 0.451807290751057 0.45180729075
 0 0.458413941660977 0.45841394166
 0 0.465040952757727 0.46504095276
 0 0.471688076857772 0.47168807686
 0 0.478355073429028 0.47835507343
 0 0.485041708316534 0.48504170832
 0 0.491747753483256 0.49174775348
 0 0.498472986764981 0.49847298676
 0 0.50521719163836 0.50521719164
 0 0.511980157001196 0.511980157
 0 0.518761676964208 0.51876167696
 0 0.525561550653482 0.52556155065
 0 0.532379582022963 0.53237958202
 0 0.539215579676331 0.53921557968
 0 0.546069356697676 0.5460693567
 0 0.552940730490437 0.55294073049
 0 0.559829522624105 0.55982952262
 0 0.566735558688206 0.56673555869
 0 0.573658668153157 0.57365866815
 0 0.580598684237563 0.58059868424
 0 0.587555443781615 0.58755544378
 0 0.594528787126209 0.59452878713
 0 0.601518557997486 0.601518558
 0 0.60852460339647 0.6085246034
 0 0.615546773493544 0.61554677349
 0 0.622584921527478 0.62258492153
 0 0.629638903708783 0.62963890371
 0 0.636708579127141 0.63670857913
 0 0.643793809662715 0.64379380966
 0 0.650894459901116 0.6508944599
 0 0.65801039705186 0.65801039705
 0 0.665141490870117 0.66514149087
 0 0.672287613581595 0.67228761358
 0 0.679448639810404 0.67944863981
 0 0.686624446509748 0.68662444651
 0 0.693814912895302 0.6938149129
 0 0.701019920381159 0.70101992038
 0 0.708239352518206 0.70823935252
 0 0.71547309493482 0.71547309493
 0 0.722721035279787 0.72272103528
 0 0.729983063167313 0.72998306317
 0 0.737259070124059 0.73725907012
 0 0.744548949538089 0.74454894954
 0 0.751852596609653 0.75185259661
 0 0.759169908303714 0.7591699083
 0 0.766500783304155 0.7665007833
 0 0.77384512196958 0.77384512197
 0 0.78120282629064 0.78120282629
 0 0.788573799848827 0.78857379985
 0 0.795957947776666 0.79595794778
 0 0.803355176719246 0.80335517672
 0 0.810765394797031 0.8107653948
 0 0.818188511569911 0.81818851157
 0 0.825624438002419 0.825624438
 0 0.833073086430091 0.83307308643
 0 0.840534370526898 0.84053437053
 0 0.848008205273732 0.84800820527
 0 0.855494506927881 0.85549450693
 0 0.862993192993463 0.86299319299
 0 0.870504182192795 0.87050418219
 0 0.878027394438627 0.87802739444
 0 0.885562750807248 0.88556275081
 0 0.893110173512391 0.89311017351
 0 0.900669585879945 0.90066958588
 0 0.908240912323407 0.90824091232
 0 0.915824078320074 0.91582407832
 0 0.923419010387936 0.92341901039
 0 0.931025636063239 0.93102563606
 0 0.938643883878704 0.93864388388
 0 0.946273683342375 0.94627368334
 0 0.953914964917069 0.95391496492
 0 0.961567660000407 0.96156766
 0 0.969231700905414 0.96923170091
 0 0.976907020841656 0.97690702084
 0 0.984593553896903 0.9845935539
 0 0.992291235019294 0.99229123502
 0 1 1
 0.05 0.102392703399492 0.1023927034
 0.05 0.105496988917985 0.10549698892
 0.05 0.108941993962212 0.10894199396
 0.05 0.112628764255053 0.11262876426
 0.05 0.116506419256793 0.11650641926
 0.05 0.120543307509574 0.12054330751
 0.05 0.124717612224388 0.12471761222
 0.05 0.12901328145085 0.12901328145
 0.05 0.133417955621749 0.13341795562
 0.05 0.137921793294339 0.13792179329
 0.05 0.142516752874886 0.14251675287
 0.05 0.147196127084891 0.14719612708
 0.05 0.151954227218888 0.15195422722
 0.05 0.156786161003217 0.156786161
 0.05 0.161687671511358 0.16168767151
 0.05 0.166655017351315 0.16665501735
 0.05 0.171684881602455 0.1716848816
 0.05 0.176774301300135 0.1767743013
 0.05 0.181920611936631 0.18192061194
 0.05 0.18712140315149 0.18712140315
 0.05 0.192374482904015 0.1923744829
 0.05 0.197677848174394 0.19767784817
 0.05 0.203029660758947 0.20302966076
 0.05 0.208428227089291 0.20842822709
 0.05 0.21387198126556 0.21387198127
 0.05 0.219359470682958 0.21935947068
 0.05 0.224889343770135 0.22488934377
 0.05 0.230460339461985 0.23046033946
 0.05 0.236071278107995 0.23607127811
 0.05 0.241721053577388 0.24172105358
 0.05 0.247408626368693 0.24740862637
 0.05 0.253133017567508 0.25313301757
 0.05 0.258893303524697 0.25889330352
 0.05 0.264688611149793 0.26468861115
 0.05 0.27051811373242 0.27051811373
 0.05 0.276381027219024 0.27638102722
 0.05 0.28227660688401 0.28227660688
 0.05 0.288204144343917 0.28820414434
 0.05 0.294162964871151 0.29416296487
 0.05 0.300152424970301 0.30015242497
 0.05 0.306171910185411 0.30617191019
 0.05 0.312220833111088 0.31222083311
 0.05 0.318298631584086 0.31829863158
 0.05 0.324404767035152 0.32440476704
 0.05 0.330538722983611 0.33053872298
 0.05 0.336700003659411 0.33670000366
 0.05 0.342888132739295 0.34288813274
 0.05 0.349102652185426 0.34910265219
 0.05 0.355343121176169 0.35534312118
 0.05 0.361609115120005 0.36160911512
 0.05 0.367900224744558 0.36790022474
 0.05 0.374216055253661 0.37421605525
 0.05 0.380556225546154 0.38055622555
 0.05 0.386920367490826 0.38692036749
 0.05 0.393308125252482 0.39330812525
 0.05 0.399719154664674 0.39971915466
 0.05 0.406153122645092 0.40615312265
 0.05 0.412609706649996 0.41260970665
 0.05 0.419088594164472 0.41908859416
 0.05 0.425589482225585 0.42558948223
 0.05 0.432112076975784 0.43211207698
 0.05 0.438656093244181 0.43865609324
 0.05 0.44522125415355 0.44522125415
 0.05 0.451807290751057 0.45180729075
 0.05 0.458413941660977 0.45841394166
 0.05 0.465040952757727 0.46504095276
 0.05 0.471688076857772 0.47168807686
 0.05 0.478355073429028 0.47835507343
 0.05 0.485041708316534 0.48504170832
 0.05 0.491747753483256 0.49174775348
 0.05 0.498472986764981 0.49847298676
 0.05 0.50521719163836 0.50521719164
 0.05 0.511980157001196 0.511980157
 0.05 0.518761676964208 0.51876167696
 0.05 0.525561550653482 0.52556155065
 0.05 0.532379582022963 0.53237958202
 0.05 0.539215579676331 0.53921557968
 0.05 0.546069356697676 0.5460693567
 0.05 0.552940730490437 0.55294073049
 0.05 0.559829522624105 0.55982952262
 0.05 0.566735558688206 0.56673555869
 0.05 0.573658668153157 0.57365866815
 0.05 0.580598684237563 0.58059868424
 0.05 0.587555443781615 0.58755544378
 0.05 0.594528787126209 0.59452878713
 0.05 0.601518557997486 0.601518558
 0.05 0.60852460339647 0.6085246034
 0.05 0.615546773493544 0.61554677349
 0.05 0.622584921527478 0.62258492153
 0.05 0.629638903708783 0.62963890371
 0.05 0.636708579127141 0.63670857913
 0.05 0.643793809662715 0.64379380966
 0.05 0.650894459901116 0.6508944599
 0.05 0.65801039705186 0.65801039705
 0.05 0.665141490870117 0.66514149087
 0.05 0.672287613581595 0.67228761358
 0.05 0.679448639810404 0.67944863981
 0.05 0.686624446509748 0.68662444651
 0.05 0.693814912895302 0.6938149129
 0.05 0.701019920381159 0.70101992038
 0.05 0.708239352518206 0.70823935252
 0.05 0.71547309493482 0.71547309493
 0.05 0.722721035279787 0.72272103528
 0.05 0.729983063167313 0.72998306317
 0.05 0.737259070124059 0.73725907012
 0.05 0.744548949538089 0.74454894954
 0.05 0.751852596609653 0.75185259661
 0.05 0.759169908303714 0.7591699083
 0.05 0.766500783304155 0.7665007833
 0.05 0.77384512196958 0.77384512197
 0.05 0.78120282629064 0.78120282629
 0.05 0.788573799848827 0.78857379985
 0.05 0.795957947776666 0.79595794778
 0.05 0.803355176719246 0.80335517672
 0.05 0.810765394797031 0.8107653948
 0.05 0.818188511569911 0.81818851157
 0.05 0.825624438002419 0.825624438
 0.05 0.833073086430091 0.83307308643
 0.05 0.840534370526898 0.84053437053
 0.05 0.848008205273732 0.84800820527
 0.05 0.855494506927881 0.85549450693
 0.05 0.862993192993463 0.86299319299
 0.05 0.870504182192795 0.87050418219
 0.05 0.878027394438627 0.87802739444
 0.05 0.885562750807248 0.88556275081
 0.05 0.893110173512391 0.89311017351
 0.05 0.900669585879945 0.90066958588
 0.05 0.908240912323407 0.90824091232
 0.05 0.915824078320074 0.91582407832
 0.05 0.923419010387936 0.92341901039
 0.05 0.931025636063239 0.93102563606
 0.05 0.938643883878704 0.93864388388
 0.05 0.946273683342375 0.94627368334
 0.05 0.953914964917069 0.95391496492
 0.05 0.961567660000407 0.96156766
 0.05 0.969231700905414 0.96923170091
 0.05 0.976907020841656 0.97690702084
 0.05 0.984593553896903 0.9845935539
 0.05 0.992291235019294 0.99229123502
 0.05 1 1
 0.1 0.102392703399492 0.1023927034
 0.1 0.105496988917985 0.10549698892
 0.1 0.108941993962212 0.10894199396
 0.1 0.112628764255053 0.11262876426
 0.1 0.116506419256793 0.11650641926
 0.1 0.120543307509574 0.12054330751
 0.1 0.124717612224388 0.12471761222
 0.1 0.12901328145085 0.12901328145
 0.1 0.133417955621749 0.13341795562
 0.1 0.137921793294339 0.13792179329
 0.1 0.142516752874886 0.14251675287
 0.1 0.147196127084891 0.14719612708
 0.1 0.151954227218888 0.15195422722
 0.1 0.156786161003217 0.156786161
 0.1 0.161687671511358 0.16168767151
 0.1 0.166655017351315 0.16665501735
 0.1 0.171684881602455 0.1716848816
 0.1 0.176774301300135 0.1767743013
 0.1 0.181920611936631 0.18192061194
 0.1 0.18712140315149 0.18712140315
 0.1 0.192374482904015 0.1923744829
 0.1 0.197677848174394 0.19767784817
 0.1 0.203029660758947 0.20302966076
 0.1 0.208428227089291 0.20842822709
 0.1 0.21387198126556 0.21387198127
 0.1 0.219359470682958 0.21935947068
 0.1 0.224889343770135 0.22488934377
 0.1 0.230460339461985 0.23046033946
 0.1 0.236071278107995 0.23607127811
 0.1 0.241721053577388 0.24172105358
 0.1 0.247408626368693 0.24740862637
 0.1 0.253133017567508 0.25313301757
 0.1 0.258893303524697 0.25889330352
 0.1 0.264688611149793 0.26468861115
 0.1 0.27051811373242 0.27051811373
 0.1 0.276381027219024 0.27638102722
 0.1 0.28227660688401 0.28227660688
 0.1 0.288204144343917 0.28820414434
 0.1 0.294162964871151 0.29416296487
 0.1 0.300152424970301 0.30015242497
 0.1 0.306171910185411 0.30617191019
 0.1 0.312220833111088 0.31222083311
 0.1 0.318298631584086 0.31829863158
 0.1 0.324404767035152 0.32440476704
 0.1 0.330538722983611 0.33053872298
 0.1 0.336700003659411 0.33670000366
 0.1 0.342888132739295 0.34288813274
 0.1 0.349102652185426 0.34910265219
 0.1 0.355343121176169 0.35534312118
 0.1 0.361609115120005 0.36160911512
 0.1 0.367900224744558 0.36790022474
 0.1 0.374216055253661 0.37421605525
 0.1 0.380556225546154 0.38055622555
 0.1 0.386920367490826 0.38692036749
 0.1 0.393308125252482 0.39330812525
 0.1 0.399719154664674 0.39971915466
 0.1 0.406153122645092 0.40615312265
 0.1 0.412609706649996 0.41260970665
 0.1 0.419088594164472 0.41908859416
 0.1 0.425589482225585 0.42558948223
 0.1 0.432112076975784 0.43211207698
 0.1 0.438656093244181 0.43865609324
 0.1 0.44522125415355 0.44522125415
 0.1 0.451807290751057 0.45180729075
 0.1 0.458413941660977 0.45841394166
 0.1 0.465040952757727 0.46504095276
 0.1 0.471688076857772 0.47168807686
 0.1 0.478355073429028 0.47835507343
 0.1 0.485041708316534 0.48504170832
 0.1 0.491747753483256 0.49174775348
 0.1 0.498472986764981 0.49847298676
 0.1 0.50521719163836 0.50521719164
 0.1 0.511980157001196 0.511980157
 0.1 0.518761676964208 0.51876167696
 0.1 0.525561550653482 0.52556155065
 0.1 0.532379582022963 0.53237958202
 0.1 0.539215579676331 0.53921557968
 0.1 0.546069356697676 0.5460693567
 0.1 0.552940730490437 0.55294073049
 0.1 0.559829522624105 0.55982952262
 0.1 0.566735558688206 0.56673555869
 0.1 0.573658668153157 0.57365866815
 0.1 0.580598684237563 0.58059868424
 0.1 0.587555443781615 0.58755544378
 0.1 0.594528787126209 0.59452878713
 0.1 0.601518557997486 0.601518558
 0.1 0.60852460339647 0.6085246034
 0.1 0.615546773493544 0.61554677349
 0.1 0.622584921527478 0.62258492153
 0.1 0.629638903708783 0.62963890371
 0.1 0.636708579127141 0.63670857913
 0.1 0.643793809662715 0.64379380966
 0.1 0.650894459901116 0.6508944599
 0.1 0.65801039705186 0.65801039705
 0.1 0.665141490870117 0.66514149087
 0.1 0.672287613581595 0.67228761358
 0.1 0.679448639810404 0.67944863981
 0.1 0.686624446509748 0.68662444651
 0.1 0.693814912895302 0.6938149129
 0.1 0.701019920381159 0.70101992038
 0.1 0.708239352518206 0.70823935252
 0.1 0.71547309493482 0.71547309493
 0.1 0.722721035279787 0.72272103528
 0.1 0.729983063167313 0.72998306317
 0.1 0.737259070124059 0.73725907012
 0.1 0.744548949538089 0.74454894954
 0.1 0.751852596609653 0.75185259661
 0.1 0.759169908303714 0.7591699083
 0.1 0.766500783304155 0.7665007833
 0.1 0.77384512196958 0.77384512197
 0.1 0.78120282629064 0.78120282629
 0.1 0.788573799848827 0.78857379985
 0.1 0.795957947776666 0.79595794778
 0.1 0.803355176719246 0.80335517672
 0.1 0.810765394797031 0.8107653948
 0.1 0.818188511569911 0.81818851157
 0.1 0.825624438002419 0.825624438
 0.1 0.833073086430091 0.83307308643
 0.1 0.840534370526898 0.84053437053
 0.1 0.848008205273732 0.84800820527
 0.1 0.855494506927881 0.85549450693
 0.1 0.862993192993463 0.86299319299
 0.1 0.870504182192795 0.87050418219
 0.1 0.878027394438627 0.87802739444
 0.1 0.885562750807248 0.88556275081
 0.1 0.893110173512391 0.89311017351
 0.1 0.900669585879945 0.90066958588
 0.1 0.908240912323407 0.90824091232
 0.1 0.915824078320074 0.91582407832
 0.1 0.923419010387936 0.92341901039
 0.1 0.931025636063239 0.93102563606
 0.1 0.938643883878704 0.93864388388
 0.1 0.946273683342375 0.94627368334
 0.1 0.953914964917069 0.95391496492
 0.1 0.961567660000407 0.96156766
 0.1 0.969231700905414 0.96923170091
 0.1 0.976907020841656 0.97690702084
 0.1 0.984593553896903 0.9845935539
 0.1 0.992291235019294 0.99229123502
 0.1 1 1
 1 42 43
 1 43 2
 2 43 44
 2 44 3
 3 44 45
 3 45 4
 4 45 46
 4 46 5
 5 46 47
 5 47 6
 6 47 48
 6 48 7
 7 48 49
 7 49 8
 8 49 50
 8 50 9
 9 50 51
 9 51 10
 10 51 52
 10 52 11
 11 52 53
 11 53 12
 12 53 54
 12 54 13
 13 54 55
 13 55 14
 14 55 56
 14 56 15
 15 56 57
 15 57 16
 16 57 58
 16 58 17
 17 58 59
 17 59 18
 18 59 60
 18 60 19
 19 60 61
 19 61 20
 20 61 62
 20 62 21
 21 62 63
 21 63 22
 22 63 64
 22 64 23
 23 64 65
 23 65 24
 24 65 66
 24 66 25
 25 66 67
 25 67 26
 26 67 68
 26 68 27
 27 68 69
 27 69 28
 28 69 70
 28 70 29
 29 70 71
 29 71 30
 30 71 72
 30 72 31
 31 72 73
 31 73 32
 32 73 74
 32 74 33
 33 74 75
 33 75 34
 34 75 76
 34 76 35
 35 76 77
 35 77 36
 36 77 78
 36 78 37
 37 78 79
 37 79 38
 38 79 80
 38 80 39
 39 80 81
 39 81 40
 40 81 82
 40 82 41
 42 83 84
 42 84 43
 43 84 85
 43 85 44
 44 85 86
 44 86 45
 45 86 87
 45 87 46
 46 87 88
 46 88 47
 47 88 89
 47 89 48
 48 89 90
 48 90 49
 49 90 91
 49 91 50
 50 91 92
 50 92 51
 51 92 93
 51 93 52
 52 93 94
 52 94 53
 53 94 95
 53 95 54
 54 95 96
 54 96 55
 55 96 97
 55 97 56
 56 97 98
 56 98 57
 57 98 99
 57 99 58
 58 99 100
 58 100 59
 59 100 101
 59 101 60
 60 101 102
 60 102 61
 61 102 103
 61 103 62
 62 103 104
 62 104 63
 63 104 105
 63 105 64
 64 105 106
 64 106 65
 65 106 107
 65 107 66
 66 107 108
 66 108 67
 67 108 109
 67 109 68
 68 109 110
 68 110 69
 69 110 111
 69 111 70
 70 111 112
 70 112 71
 71 112 113
 71 113 72
 72 113 114
 72 114 73
 73 114 115
 73 115 74
 74 115 116
 74 116 75
 75 116 117
 75 117 76
 76 117 118
 76 118 77
 77 118 119
 77 119 78
 78 119 120
 78 120 79
 79 120 121
 79 121 80
 80 121 122
 80 122 81
 81 122 123
 81 123 82
 41 82 264
 41 264 124
 124 264 265
 124 265 125
 125 265 266
 125 266 126
 126 266 267
 126 267 127
 127 267 268
 127 268 128
 128 268 269
 128 269 129
 129 269 270
 129 270 130
 130 270 271
 130 271 131
 131 271 272
 131 272 132
 132 272 273
 132 273 133
 133 273 274
 133 274 134
 134 274 275
 134 275 135
 135 275 276
 135 276 136
 136 276 277
 136 277 137
 137 277 278
 137 278 138
 138 278 279
 138 279 139
 139 279 280
 139 280 140
 140 280 281
 140 281 141
 141 281 282
 141 282 142
 142 282 283
 142 283 143
 143 283 284
 143 284 144
 144 284 285
 144 285 145
 145 285 286
 145 286 146
 146 286 287
 146 287 147
 147 287 288
 147 288 148
 148 288 289
 148 289 149
 149 289 290
 149 290 150
 150 290 291
 150 291 151
 151 291 292
 151 292 152
 152 292 293
 152 293 153
 153 293 294
 153 294 154
 154 294 295
 154 295 155
 155 295 296
 155 296 156
 156 296 297
 156 297 157
 157 297 298
 157 298 158
 158 298 299
 158 299 159
 159 299 300
 159 300 160
 160 300 301
 160 301 161
 161 301 302
 161 302 162
 162 302 303
 162 303 163
 163 303 304
 163 304 164
 164 304 305
 164 305 165
 165 305 306
 165 306 166
 166 306 307
 166 307 167
 167 307 308
 167 308 168
 168 308 309
 168 309 169
 169 309 310
 169 310 170
 170 310 311
 170 311 171
 171 311 312
 171 312 172
 172 312 313
 172 313 173
 173 313 314
 173 314 174
 174 314 315
 174 315 175
 175 315 316
 175 316 176
 176 316 317
 176 317 177
 177 317 318
 177 318 178
 178 318 319
 178 319 179
 179 319 320
 179 320 180
 180 320 321
 180 321 181
 181 321 322
 181 322 182
 182 322 323
 182 323 183
 183 323 324
 183 324 184
 184 324 325
 184 325 185
 185 325 326
 185 326 186
 186 326 327
 186 327 187
 187 327 328
 187 328 188
 188 328 329
 188 329 189
 189 329 330
 189 330 190
 190 330 331
 190 331 191
 191 331 332
 191 332 192
 192 332 333
 192 333 193
 193 333 334
 193 334 194
 194 334 335
 194 335 195
 195 335 336
 195 336 196
 196 336 337
 196 337 197
 197 337 338
 197 338 198
 198 338 339
 198 339 199
 199 339 340
 199 340 200
 200 340 341
 200 341 201
 201 341 342
 201 342 202
 202 342 343
 202 343 203
 203 343 344
 203 344 204
 204 344 345
 204 345 205
 205 345 346
 205 346 206
 206 346 347
 206 347 207
 207 347 348
 207 348 208
 208 348 349
 208 349 209
 209 349 350
 209 350 210
 210 350 351
 210 351 211
 211 351 352
 211 352 212
 212 352 353
 212 353 213
 213 353 354
 213 354 214
 214 354 355
 214 355 215
 215 355 356
 215 356 216
 216 356 357
 216 357 217
 217 357 358
 217 358 218
 218 358 359
 218 359 219
 219 359 360
 219 360 220
 220 360 361
 220 361 221
 221 361 362
 221 362 222
 222 362 363
 222 363 223
 223 363 364
 223 364 224
 224 364 365
 224 365 225
 225 365 366
 225 366 226
 226 366 367
 226 367 227
 227 367 368
 227 368 228
 228 368 369
 228 369 229
 229 369 370
 229 370 230
 230 370 371
 230 371 231
 231 371 372
 231 372 232
 232 372 373
 232 373 233
 233 373 374
 233 374 234
 234 374 375
 234 375 235
 235 375 376
 235 376 236
 236 376 377
 236 377 237
 237 377 378
 237 378 238
 238 378 379
 238 379 239
 239 379 380
 239 380 240
 240 380 381
 240 381 241
 241 381 382
 241 382 242
 242 382 383
 242 383 243
 243 383 384
 243 384 244
 244 384 385
 244 385 245
 245 385 386
 245 386 246
 246 386 387
 246 387 247
 247 387 388
 247 388 248
 248 388 389
 248 389 249
 249 389 390
 249 390 250
 250 390 391
 250 391 251
 251 391 392
 251 392 252
 252 392 393
 252 393 253
 253 393 394
 253 394 254
 254 394 395
 254 395 255
 255 395 396
 255 396 256
 256 396 397
 256 397 257
 257 397 398
 257 398 258
 258 398 399
 258 399 259
 259 399 400
 259 400 260
 260 400 401
 260 401 261
 261 401 402
 261 402 262
 262 402 403
 262 403 263
 82 123 404
 82 404 264
 264 404 405
 264 405 265
 265 405 406
 265 406 266
 266 406 407
 266 407 267
 267 407 408
 267 408 268
 268 408 409
 268 409 269
 269 409 410
 269 410 270
 270 410 411
 270 411 271
 271 411 412
 271 412 272
 272 412 413
 272 413 273
 273 413 414
 273 414 274
 274 414 415
 274 415 275
 275 415 416
 275 416 276
 276 416 417
 276 417 277
 277 417 418
 277 418 278
 278 418 419
 278 419 279
 279 419 420
 279 420 280
 280 420 421
 280 421 281
 281 421 422
 281 422 282
 282 422 423
 282 423 283
 283 423 424
 283 424 284
 284 424 425
 284 425 285
 285 425 426
 285 426 286
 286 426 427
 286 427 287
 287 427 428
 287 428 288
 288 428 429
 288 429 289
 289 429 430
 289 430 290
 290 430 431
 290 431 291
 291 431 432
 291 432 292
 292 432 433
 292 433 293
 293 433 434
 293 434 294
 294 434 435
 294 435 295
 295 435 436
 295 436 296
 296 436 437
 296 437 297
 297 437 438
 297 438 298
 298 438 439
 298 439 299
 299 439 440
 299 440 300
 300 440 441
 300 441 301
 301 441 442
 301 442 302
 302 442 443
 302 443 303
 303 443 444
 303 444 304
 304 444 445
 304 445 305
 305 445 446
 305 446 306
 306 446 447
 306 447 307
 307 447 448
 307 448 308
 308 448 449
 308 449 309
 309 449 450
 309 450 310
 310 450 451
 310 451 311
 311 451 452
 311 452 312
 312 452 453
 312 453 313
 313 453 454
 313 454 314
 314 454 455
 314 455 315
 315 455 456
 315 456 316
 316 456 457
 316 457 317
 317 457 458
 317 458 318
 318 458 459
 318 459 319
 319 459 460
 319 460 320
 320 460 461
 320 461 321
 321 461 462
 321 462 322
 322 462 463
 322 463 323
 323 463 464
 323 464 324
 324 464 465
 324 465 325
 325 465 466
 325 466 326
 326 466 467
 326 467 327
 327 467 468
 327 468 328
 328 468 469
 328 469 329
 329 469 470
 329 470 330
 330 470 471
 330 471 331
 331 471 472
 331 472 332
 332 472 473
 332 473 333
 333 473 474
 333 474 334
 334 474 475
 334 475 335
 335 475 476
 335 476 336
 336 476 477
 336 477 337
 337 477 478
 337 478 338
 338 478 479
 338 479 339
 339 479 480
 339 480 340
 340 480 481
 340 481 341
 341 481 482
 341 482 342
 342 482 483
 342 483 343
 343 483 484
 343 484 344
 344 484 485
 344 485 345
 345 485 486
 345 486 346
 346 486 487
 346 487 347
 347 487 488
 347 488 348
 348 488 489
 348 489 349
 349 489 490
 349 490 350
 350 490 491
 350 491 351
 351 491 492
 351 492 352
 352 492 493
 352 493 353
 353 493 494
 353 494 354
 354 494 495
 354 495 355
 355 495 496
 355 496 356
 356 496 497
 356 497 357
 357 497 498
 357 498 358
 358 498 499
 358 499 359
 359 499 500
 359 500 360
 360 500 501
 360 501 361
 361 501 502
 361 502 362
 362 502 503
 362 503 363
 363 503 504
 363 504 364
 364 504 505
 364 505 365
 365 505 506
 365 506 366
 366 506 507
 366 507 367
 367 507 508
 367 508 368
 368 508 509
 368 509 369
 369 509 510
 369 510 370
 370 510 511
 370 511 371
 371 511 512
 371 512 372
 372 512 513
 372 513 373
 373 513 514
 373 514 374
 374 514 515
 374 515 375
 375 515 516
 375 516 376
 376 516 517
 376 517 377
 377 517 518
 377 518 378
 378 518 519
 378 519 379
 379 519 520
 379 520 380
 380 520 521
 380 521 381
 381 521 522
 381 522 382
 382 522 523
 382 523 383
 383 523 524
 383 524 384
 384 524 525
 384 525 385
 385 525 526
 385 526 386
 386 526 527
 386 527 387
 387 527 528
 387 528 388
 388 528 529
 388 529 389
 389 529 530
 389 530 390
 390 530 531
 390 531 391
 391 531 532
 391 532 392
 392 532 533
 392 533 393
 393 533 534
 393 534 394
 394 534 535
 394 535 395
 395 535 536
 395 536 396
 396 536 537
 396 537 397
 397 537 538
 397 538 398
 398 538 539
 398 539 399
 399 539 540
 399 540 400
 400 540 541
 400 541 401
 401 541 542
 401 542 402
 402 542 543
 402 543 403
ZONE T="Boundary1" SOLUTIONTIME=0 DATAPACKING=POINT VARSHARELIST=([1-3]=1) N=543 E=180 ZONETYPE=FELINESEG
 1 2
 2 3
 3 4
 4 5
 5 6
 6 7
 7 8
 8 9
 9 10
 10 11
 11 12
 12 13
 13 14
 14 15
 15 16
 16 17
 17 18
 18 19
 19 20
 20 21
 21 22
 22 23
 23 24
 24 25
 25 26
 26 27
 27 28
 28 29
 29 30
 30 31
 31 32
 32 33
 33 34
 34 35
 35 36
 36 37
 37 38
 38 39
 39 40
 40 41
 41 124
 124 125
 125 126
 126 127
 127 128
 128 129
 129 130
 130 131
 131 132
 132 133
 133 134
 134 135
 135 136
 136 137
 137 138
 138 139
 139 140
 140 141
 141 142
 142 143
 143 144
 144 145
 145 146
 146 147
 147 148
 148 149
 149 150
 150 151
 151 152
 152 153
 153 154
 154 155
 155 156
 156 157
 157 158
 158 159
 159 160
 160 161
 161 162
 162 163
 163 164
 164 165
 165 166
 166 167
 167 168
 168 169
 169 170
 170 171
 171 172
 172 173
 173 174
 174 175
 175 176
 176 177
 177 178
 178 179
 179 180
 180 181
 181 182
 182 183
 183 184
 184 185
 185 186
 186 187
 187 188
 188 189
 189 190
 190 191
 191 192
 192 193
 193 194
 194 195
 195 196
 196 197
 197 198
 198 199
 199 200
 200 201
 201 202
 202 203
 203 204
 204 205
 205 206
 206 207
 207 208
 208 209
 209 210
 210 211
 211 212
 212 213
 213 214
 214 215
 215 216
 216 217
 217 218
 218 219
 219 220
 220 221
 221 222
 222 223
 223 224
 224 225
 225 226
 226 227
 227 228
 228 229
 229 230
 230 231
 231 232
 232 233
 233 234
 234 235
 235 236
 236 237
 237 238
 238 239
 239 240
 240 241
 241 242
 242 243
 243 244
 244 245
 245 246
 246 247
 247 248
 248 249
 249 250
 250 251
 251 252
 252 253
 253 254
 254 255
 255 256
 256 257
 257 258
 258 259
 259 260
 260 261
 261 262
 262 263
ZONE T="Boundary2" SOLUTIONTIME=0 DATAPACKING=POINT VARSHARELIST=([1-3]=1) N=543 E=180 ZONETYPE=FELINESEG
 83 84
 84 85
 85 86
 86 87
 87 88
 88 89
 89 90
 90 91
 91 92
 92 93
 93 94
 94 95
 95 96
 96 97
 97 98
 98 99
 99 100
 100 101
 101 102
 102 103
 103 104
 104 105
 105 106
 106 107
 107 108
 108 109
 109 110
 110 111
 111 112
 112 113
 113 114
 114 115
 115 116
 116 117
 117 118
 118 119
 119 120
 120 121
 121 122
 122 123
 123 404
 404 405
 405 406
 406 407
 407 408
 408 409
 409 410
 410 411
 411 412
 412 413
 413 414
 414 415
 415 416
 416 417
 417 418
 418 419
 419 420
 420 421
 421 422
 422 423
 423 424
 424 425
 425 426
 426 427
 427 428
 428 429
 429 430
 430 431
 431 432
 432 433
 433 434
 434 435
 435 436
 436 437
 437 438
 438 439
 439 440
 440 441
 441 442
 442 443
 443 444
 444 445
 445 446
 446 447
 447 448
 448 449
 449 450
 450 451
 451 452
 452 453
 453 454
 454 455
 455 456
 456 457
 457 458
 458 459
 459 460
 460 461
 461 462
 462 463
 463 464
 464 465
 465 466
 466 467
 467 468
 468 469
 469 470
 470 471
 471 472
 472 473
 473 474
 474 475
 475 476
 476 477
 477 478
 478 479
 479 480
 480 481
 481 482
 482 483
 483 484
 484 485
 485 486
 486 487
 487 488
 488 489
 489 490
 490 491
 491 492
 492 493
 493 494
 494 495
 495 496
 496 497
 497 498
 498 499
 499 500
 500 501
 501 502
 502 503
 503 504
 504 505
 505 506
 506 507
 507 508
 508 509
 509 510
 510 511
 511 512
 512 513
 513 514
 514 515
 515 516
 516 517
 517 518
 518 519
 519 520
 520 521
 521 522
 522 523
 523 524
 524 525
 525 526
 526 527
 527 528
 528 529
 529 530
 530 531
 531 532
 532 533
 533 534
 534 535
 535 536
 536 537
 537 538
 538 539
 539 540
 540 541
 541 542
 542 543
ZONE T="Boundary3" SOLUTIONTIME=0 DATAPACKING=POINT VARSHARELIST=([1-3]=1) N=543 E=2 ZONETYPE=FELINESEG
 1 42
 42 83
ZONE T="Boundary4" SOLUTIONTIME=0 DATAPACKING=POINT VARSHARELIST=([1-3]=1) N=543 E=2 ZONETYPE=FELINESEG
 403 263
 543 403
