VARIABLES = "x" "y" "wd"
ZONE T="InnerCells" SOLUTIONTIME=0 DATAPACKING=POINT N=273 E=360 ZONETYPE=FETRIANGLE
 0 0 0.0027464013583
 0 0.00274640135826529 0.0027464013583
 0 0.00630957344480193 0.0063095734448
 0 0.0102638314337795 0.010263831434
 0 0.0144955932735539 0.014495593274
 0 0.01894645708138 0.018946457081
 0 0.0235800925678987 0.023580092568
 0 0.0283714579084632 0.028371457908
 0 0.0333021282960749 0.033302128296
 0 0.0383579171281722 0.038357917128
 0 0.0435275281648062 0.043527528165
 0 0.0488017310751479 0.048801731075
 0 0.0541728270868461 0.054172827087
 0 0.0596342865696824 0.05963428657
 0 0.0651804940566386 0.065180494057
 0 0.0708065633471176 0.070806563347
 0 0.076508199983203 0.076508199983
 0 0.0822815967252109 0.082281596725
 0 0.0881233526124879 0.088123352612
 0 0.0940304092602639 0.09403040926
 0 0.1 0.1
 0.05 0 0.0027464013583
 0.05 0.00274640135826529 0.0027464013583
 0.05 0.00630957344480193 0.0063095734448
 0.05 0.0102638314337795 0.010263831434
 0.05 0.0144955932735539 0.014495593274
 0.05 0.01894645708138 0.018946457081
 0.05 0.0235800925678987 0.023580092568
 0.05 0.0283714579084632 0.028371457908
 0.05 0.0333021282960749 0.033302128296
 0.05 0.0383579171281722 0.038357917128
 0.05 0.0435275281648062 0.043527528165
 0.05 0.0488017310751479 0.048801731075
 0.05 0.0541728270868461 0.054172827087
 0.05 0.0596342865696824 0.05963428657
 0.05 0.0651804940566386 0.065180494057
 0.05 0.0708065633471176 0.070806563347
 0.05 0.076508199983203 0.076508199983
 0.05 0.0822815967252109 0.082281596725
 0.05 0.0881233526124879 0.088123352612
 0.05 0.0940304092602639 0.09403040926
 0.05 0.1 0.1
 0.1 0 0.0027464013583
 0.1 0.00274640135826529 0.0027464013583
 0.1 0.00630957344480193 0.0063095734448
 0.1 0.0102638314337795 0.010263831434
 0.1 0.0144955932735539 0.014495593274
 0.1 0.01894645708138 0.018946457081
 0.1 0.0235800925678987 0.023580092568
 0.1 0.0283714579084632 0.028371457908
 0.1 0.0333021282960749 0.033302128296
 0.1 0.0383579171281722 0.038357917128
 0.1 0.0435275281648062 0.043527528165
 0.1 0.0488017310751479 0.048801731075
 0.1 0.0541728270868461 0.054172827087
 0.1 0.0596342865696824 0.05963428657
 0.1 0.0651804940566386 0.065180494057
 0.1 0.0708065633471176 0.070806563347
 0.1 0.076508199983203 0.076508199983
 0.1 0.0822815967252109 0.082281596725
 0.1 0.0881233526124879 0.088123352612
 0.1 0.0940304092602639 0.09403040926
 0.1 0.1 0.1
 0 0.105496988917985 0.10549698892
 0 0.112628764255053 0.11262876426
 0 0.120543307509574 0.12054330751
 0 0.12901328145085 0.12901328145
 0 0.137921793294339 0.13792179329
 0 0.147196127084891 0.14719612708
 0 0.156786161003217 0.156786161
 0 0.166655017351315 0.16665501735
 0 0.176774301300135 0.1767743013
 0 0.18712140315149 0.18712140315
 0 0.197677848174394 0.19767784817
 0 0.208428227089291 0.20842822709
 0 0.219359470682958 0.21935947068
 0 0.230460339461985 0.23046033946
 0 0.241721053577388 0.24172105358
 0 0.253133017567508 0.25313301757
 0 0.264688611149793 0.26468861115
 0 0.276381027219024 0.27638102722
 0 0.288204144343917 0.28820414434
 0 0.300152424970301 0.30015242497
 0 0.312220833111088 0.31222083311
 0 0.324404767035152 0.32440476704
 0 0.336700003659411 0.33670000366
 0 0.349102652185426 0.34910265219
 0 0.361609115120005 0.36160911512
 0 0.374216055253661 0.37421605525
 0 0.386920367490826 0.38692036749
 0 0.399719154664674 0.39971915466
 0 0.412609706649996 0.41260970665
 0 0.425589482225585 0.42558948223
 0 0.438656093244181 0.43865609324
 0 0.451807290751057 0.45180729075
 0 0.465040952757727 0.46504095276
 0 0.478355073429028 0.47835507343
 0 0.491747753483256 0.49174775348
 0 0.50521719163836 0.50521719164
 0 0.518761676964208 0.51876167696
 0 0.532379582022963 0.53237958202
 0 0.546069356697676 0.5460693567
 0 0.559829522624105 0.55982952262
 0 0.573658668153157 0.57365866815
 0 0.587555443781615 0.58755544378
 0 0.601518557997486 0.601518558
 0 0.615546773493544 0.61554677349
 0 0.629638903708783 0.62963890371
 0 0.643793809662715 0.64379380966
 0 0.65801039705186 0.65801039705
 0 0.672287613581595 0.67228761358
 0 0.686624446509748 0.68662444651
 0 0.701019920381159 0.70101992038
 0 0.71547309493482 0.71547309493
 0 0.729983063167313 0.72998306317
 0 0.744548949538089 0.74454894954
 0 0.759169908303714 0.7591699083
 0 0.77384512196958 0.77384512197
 0 0.788573799848827 0.78857379985
 0 0.803355176719246 0.80335517672
 0 0.818188511569911 0.81818851157
 0 0.833073086430091 0.83307308643
 0 0.848008205273732 0.84800820527
 0 0.862993192993463 0.86299319299
 0 0.878027394438627 0.87802739444
 0 0.893110173512391 0.89311017351
 0 0.908240912323407 0.90824091232
 0 0.923419010387936 0.92341901039
 0 0.938643883878704 0.93864388388
 0 0.953914964917069 0.95391496492
 0 0.969231700905414 0.96923170091
 0 0.984593553896903 0.9845935539
 0 1 1
 0.05 0.105496988917985 0.10549698892
 0.05 0.112628764255053 0.11262876426
 0.05 0.120543307509574 0.12054330751
 0.05 0.12901328145085 0.12901328145
 0.05 0.137921793294339 0.13792179329
 0.05 0.147196127084891 0.14719612708
 0.05 0.156786161003217 0.156786161
 0.05 0.166655017351315 0.16665501735
 0.05 0.176774301300135 0.1767743013
 0.05 0.18712140315149 0.18712140315
 0.05 0.197677848174394 0.19767784817
 0.05 0.208428227089291 0.20842822709
 0.05 0.219359470682958 0.21935947068
 0.05 0.230460339461985 0.23046033946
 0.05 0.241721053577388 0.24172105358
 0.05 0.253133017567508 0.25313301757
 0.05 0.264688611149793 0.26468861115
 0.05 0.276381027219024 0.27638102722
 0.05 0.288204144343917 0.28820414434
 0.05 0.300152424970301 0.30015242497
 0.05 0.312220833111088 0.31222083311
 0.05 0.324404767035152 0.32440476704
 0.05 0.336700003659411 0.33670000366
 0.05 0.349102652185426 0.34910265219
 0.05 0.361609115120005 0.36160911512
 0.05 0.374216055253661 0.37421605525
 0.05 0.386920367490826 0.38692036749
 0.05 0.399719154664674 0.39971915466
 0.05 0.412609706649996 0.41260970665
 0.05 0.425589482225585 0.42558948223
 0.05 0.438656093244181 0.43865609324
 0.05 0.451807290751057 0.45180729075
 0.05 0.465040952757727 0.46504095276
 0.05 0.478355073429028 0.47835507343
 0.05 0.491747753483256 0.49174775348
 0.05 0.50521719163836 0.50521719164
 0.05 0.518761676964208 0.51876167696
 0.05 0.532379582022963 0.53237958202
 0.05 0.546069356697676 0.5460693567
 0.05 0.559829522624105 0.55982952262
 0.05 0.573658668153157 0.57365866815
 0.05 0.587555443781615 0.58755544378
 0.05 0.601518557997486 0.601518558
 0.05 0.615546773493544 0.61554677349
 0.05 0.629638903708783 0.62963890371
 0.05 0.643793809662715 0.64379380966
 0.05 0.65801039705186 0.65801039705
 0.05 0.672287613581595 0.67228761358
 0.05 0.686624446509748 0.68662444651
 0.05 0.701019920381159 0.70101992038
 0.05 0.71547309493482 0.71547309493
 0.05 0.729983063167313 0.72998306317
 0.05 0.744548949538089 0.74454894954
 0.05 0.759169908303714 0.7591699083
 0.05 0.77384512196958 0.77384512197
 0.05 0.788573799848827 0.78857379985
 0.05 0.803355176719246 0.80335517672
 0.05 0.818188511569911 0.81818851157
 0.05 0.833073086430091 0.83307308643
 0.05 0.848008205273732 0.84800820527
 0.05 0.862993192993463 0.86299319299
 0.05 0.878027394438627 0.87802739444
 0.05 0.893110173512391 0.89311017351
 0.05 0.908240912323407 0.90824091232
 0.05 0.923419010387936 0.92341901039
 0.05 0.938643883878704 0.93864388388
 0.05 0.953914964917069 0.95391496492
 0.05 0.969231700905414 0.96923170091
 0.05 0.984593553896903 0.9845935539
 0.05 1 1
 0.1 0.105496988917985 0.10549698892
 0.1 0.112628764255053 0.11262876426
 0.1 0.120543307509574 0.12054330751
 0.1 0.12901328145085 0.12901328145
 0.1 0.137921793294339 0.13792179329
 0.1 0.147196127084891 0.14719612708
 0.1 0.156786161003217 0.156786161
 0.1 0.166655017351315 0.16665501735
 0.1 0.176774301300135 0.1767743013
 0.1 0.18712140315149 0.18712140315
 0.1 0.197677848174394 0.19767784817
 0.1 0.208428227089291 0.20842822709
 0.1 0.219359470682958 0.21935947068
 0.1 0.230460339461985 0.23046033946
 0.1 0.241721053577388 0.24172105358
 0.1 0.253133017567508 0.25313301757
 0.1 0.264688611149793 0.26468861115
 0.1 0.276381027219024 0.27638102722
 0.1 0.288204144343917 0.28820414434
 0.1 0.300152424970301 0.30015242497
 0.1 0.312220833111088 0.31222083311
 0.1 0.324404767035152 0.32440476704
 0.1 0.336700003659411 0.33670000366
 0.1 0.349102652185426 0.34910265219
 0.1 0.361609115120005 0.36160911512
 0.1 0.374216055253661 0.37421605525
 0.1 0.386920367490826 0.38692036749
 0.1 0.399719154664674 0.39971915466
 0.1 0.412609706649996 0.41260970665
 0.1 0.425589482225585 0.42558948223
 0.1 0.438656093244181 0.43865609324
 0.1 0.451807290751057 0.45180729075
 0.1 0.465040952757727 0.46504095276
 0.1 0.478355073429028 0.47835507343
 0.1 0.491747753483256 0.49174775348
 0.1 0.50521719163836 0.50521719164
 0.1 0.518761676964208 0.51876167696
 0.1 0.532379582022963 0.53237958202
 0.1 0.546069356697676 0.5460693567
 0.1 0.559829522624105 0.55982952262
 0.1 0.573658668153157 0.57365866815
 0.1 0.587555443781615 0.58755544378
 0.1 0.601518557997486 0.601518558
 0.1 0.615546773493544 0.61554677349
 0.1 0.629638903708783 0.62963890371
 0.1 0.643793809662715 0.64379380966
 0.1 0.65801039705186 0.65801039705
 0.1 0.672287613581595 0.67228761358
 0.1 0.686624446509748 0.68662444651
 0.1 0.701019920381159 0.70101992038
 0.1 0.71547309493482 0.71547309493
 0.1 0.729983063167313 0.72998306317
 0.1 0.744548949538089 0.74454894954
 0.1 0.759169908303714 0.7591699083
 0.1 0.77384512196958 0.77384512197
 0.1 0.788573799848827 0.78857379985
 0.1 0.803355176719246 0.80335517672
 0.1 0.818188511569911 0.81818851157
 0.1 0.833073086430091 0.83307308643
 0.1 0.848008205273732 0.84800820527
 0.1 0.862993192993463 0.86299319299
 0.1 0.878027394438627 0.87802739444
 0.1 0.893110173512391 0.89311017351
 0.1 0.908240912323407 0.90824091232
 0.1 0.923419010387936 0.92341901039
 0.1 0.938643883878704 0.93864388388
 0.1 0.953914964917069 0.95391496492
 0.1 0.969231700905414 0.96923170091
 0.1 0.984593553896903 0.9845935539
 0.1 1 1
 1 22 23
 1 23 2
 2 23 24
 2 24 3
 3 24 25
 3 25 4
 4 25 26
 4 26 5
 5 26 27
 5 27 6
 6 27 28
 6 28 7
 7 28 29
 7 29 8
 8 29 30
 8 30 9
 9 30 31
 9 31 10
 10 31 32
 10 32 11
 11 32 33
 11 33 12
 12 33 34
 12 34 13
 13 34 35
 13 35 14
 14 35 36
 14 36 15
 15 36 37
 15 37 16
 16 37 38
 16 38 17
 17 38 39
 17 39 18
 18 39 40
 18 40 19
 19 40 41
 19 41 20
 20 41 42
 20 42 21
 22 43 44
 22 44 23
 23 44 45
 23 45 24
 24 45 46
 24 46 25
 25 46 47
 25 47 26
 26 47 48
 26 48 27
 27 48 49
 27 49 28
 28 49 50
 28 50 29
 29 50 51
 29 51 30
 30 51 52
 30 52 31
 31 52 53
 31 53 32
 32 53 54
 32 54 33
 33 54 55
 33 55 34
 34 55 56
 34 56 35
 35 56 57
 35 57 36
 36 57 58
 36 58 37
 37 58 59
 37 59 38
 38 59 60
 38 60 39
 39 60 61
 39 61 40
 40 61 62
 40 62 41
 41 62 63
 41 63 42
 21 42 134
 21 134 64
 64 134 135
 64 135 65
 65 135 136
 65 136 66
 66 136 137
 66 137 67
 67 137 138
 67 138 68
 68 138 139
 68 139 69
 69 139 140
 69 140 70
 70 140 141
 70 141 71
 71 141 142
 71 142 72
 72 142 143
 72 143 73
 73 143 144
 73 144 74
 74 144 145
 74 145 75
 75 145 146
 75 146 76
 76 146 147
 76 147 77
 77 147 148
 77 148 78
 78 148 149
 78 149 79
 79 149 150
 79 150 80
 80 150 151
 80 151 81
 81 151 152
 81 152 82
 82 152 153
 82 153 83
 83 153 154
 83 154 84
 84 154 155
 84 155 85
 85 155 156
 85 156 86
 86 156 157
 86 157 87
 87 157 158
 87 158 88
 88 158 159
 88 159 89
 89 159 160
 89 160 90
 90 160 161
 90 161 91
 91 161 162
 91 162 92
 92 162 163
 92 163 93
 93 163 164
 93 164 94
 94 164 165
 94 165 95
 95 165 166
 95 166 96
 96 166 167
 96 167 97
 97 167 168
 97 168 98
 98 168 169
 98 169 99
 99 169 170
 99 170 100
 100 170 171
 100 171 101
 101 171 172
 101 172 102
 102 172 173
 102 173 103
 103 173 174
 103 174 104
 104 174 175
 104 175 105
 105 175 176
 105 176 106
 106 176 177
 106 177 107
 107 177 178
 107 178 108
 108 178 179
 108 179 109
 109 179 180
 109 180 110
 110 180 181
 110 181 111
 111 181 182
 111 182 112
 112 182 183
 112 183 113
 113 183 184
 113 184 114
 114 184 185
 114 185 115
 115 185 186
 115 186 116
 116 186 187
 116 187 117
 117 187 188
 117 188 118
 118 188 189
 118 189 119
 119 189 190
 119 190 120
 120 190 191
 120 191 121
 121 191 192
 121 192 122
 122 192 193
 122 193 123
 123 193 194
 123 194 124
 124 194 195
 124 195 125
 125 195 196
 125 196 126
 126 196 197
 126 197 127
 127 197 198
 127 198 128
 128 198 199
 128 199 129
 129 199 200
 129 200 130
 130 200 201
 130 201 131
 131 201 202
 131 202 132
 132 202 203
 132 203 133
 42 63 204
 42 204 134
 134 204 205
 134 205 135
 135 205 206
 135 206 136
 136 206 207
 136 207 137
 137 207 208
 137 208 138
 138 208 209
 138 209 139
 139 209 210
 139 210 140
 140 210 211
 140 211 141
 141 211 212
 141 212 142
 142 212 213
 142 213 143
 143 213 214
 143 214 144
 144 214 215
 144 215 145
 145 215 216
 145 216 146
 146 216 217
 146 217 147
 147 217 218
 147 218 148
 148 218 219
 148 219 149
 149 219 220
 149 220 150
 150 220 221
 150 221 151
 151 221 222
 151 222 152
 152 222 223
 152 223 153
 153 223 224
 153 224 154
 154 224 225
 154 225 155
 155 225 226
 155 226 156
 156 226 227
 156 227 157
 157 227 228
 157 228 158
 158 228 229
 158 229 159
 159 229 230
 159 230 160
 160 230 231
 160 231 161
 161 231 232
 161 232 162
 162 232 233
 162 233 163
 163 233 234
 163 234 164
 164 234 235
 164 235 165
 165 235 236
 165 236 166
 166 236 237
 166 237 167
 167 237 238
 167 238 168
 168 238 239
 168 239 169
 169 239 240
 169 240 170
 170 240 241
 170 241 171
 171 241 242
 171 242 172
 172 242 243
 172 243 173
 173 243 244
 173 244 174
 174 244 245
 174 245 175
 175 245 246
 175 246 176
 176 246 247
 176 247 177
 177 247 248
 177 248 178
 178 248 249
 178 249 179
 179 249 250
 179 250 180
 180 250 251
 180 251 181
 181 251 252
 181 252 182
 182 252 253
 182 253 183
 183 253 254
 183 254 184
 184 254 255
 184 255 185
 185 255 256
 185 256 186
 186 256 257
 186 257 187
 187 257 258
 187 258 188
 188 258 259
 188 259 189
 189 259 260
 189 260 190
 190 260 261
 190 261 191
 191 261 262
 191 262 192
 192 262 263
 192 263 193
 193 263 264
 193 264 194
 194 264 265
 194 265 195
 195 265 266
 195 266 196
 196 266 267
 196 267 197
 197 267 268
 197 268 198
 198 268 269
 198 269 199
 199 269 270
 199 270 200
 200 270 271
 200 271 201
 201 271 272
 201 272 202
 202 272 273
 202 273 203
ZONE T="Boundary1" SOLUTIONTIME=0 DATAPACKING=POINT VARSHARELIST=([1-3]=1) N=273 E=90 ZONETYPE=FELINESEG
 1 2
 2 3
 3 4
 4 5
 5 6
 6 7
 7 8
 8 9
 9 10
 10 11
 11 12
 12 13
 13 14
 14 15
 15 16
 16 17
 17 18
 18 19
 19 20
 20 21
 21 64
 64 65
 65 66
 66 67
 67 68
 68 69
 69 70
 70 71
 71 72
 72 73
 73 74
 74 75
 75 76
 76 77
 77 78
 78 79
 79 80
 80 81
 81 82
 82 83
 83 84
 84 85
 85 86
 86 87
 87 88
 88 89
 89 90
 90 91
 91 92
 92 93
 93 94
 94 95
 95 96
 96 97
 97 98
 98 99
 99 100
 100 101
 101 102
 102 103
 103 104
 104 105
 105 106
 106 107
 107 108
 108 109
 109 110
 110 111
 111 112
 112 113
 113 114
 114 115
 115 116
 116 117
 117 118
 118 119
 119 120
 120 121
 121 122
 122 123
 123 124
 124 125
 125 126
 126 127
 127 128
 128 129
 129 130
 130 131
 131 132
 132 133
ZONE T="Boundary2" SOLUTIONTIME=0 DATAPACKING=POINT VARSHARELIST=([1-3]=1) N=273 E=90 ZONETYPE=FELINESEG
 43 44
 44 45
 45 46
 46 47
 47 48
 48 49
 49 50
 50 51
 51 52
 52 53
 53 54
 54 55
 55 56
 56 57
 57 58
 58 59
 59 60
 60 61
 61 62
 62 63
 63 204
 204 205
 205 206
 206 207
 207 208
 208 209
 209 210
 210 211
 211 212
 212 213
 213 214
 214 215
 215 216
 216 217
 217 218
 218 219
 219 220
 220 221
 221 222
 222 223
 223 224
 224 225
 225 226
 226 227
 227 228
 228 229
 229 230
 230 231
 231 232
 232 233
 233 234
 234 235
 235 236
 236 237
 237 238
 238 239
 239 240
 240 241
 241 242
 242 243
 243 244
 244 245
 245 246
 246 247
 247 248
 248 249
 249 250
 250 251
 251 252
 252 253
 253 254
 254 255
 255 256
 256 257
 257 258
 258 259
 259 260
 260 261
 261 262
 262 263
 263 264
 264 265
 265 266
 266 267
 267 268
 268 269
 269 270
 270 271
 271 272
 272 273
ZONE T="Boundary3" SOLUTIONTIME=0 DATAPACKING=POINT VARSHARELIST=([1-3]=1) N=273 E=2 ZONETYPE=FELINESEG
 1 22
 22 43
ZONE T="Boundary4" SOLUTIONTIME=0 DATAPACKING=POINT VARSHARELIST=([1-3]=1) N=273 E=2 ZONETYPE=FELINESEG
 203 133
 273 203
